   8   8   0   0
  0.5643294E+01  0.3560745E-09  0.3560745E-09  0.3560745E-09  0.1000000E-15
  1.000000000000000E-004
  CAR 
 unknown system                          
     20.75881336    -12.85010889  301      9.45081140      1.00000000
    -12.850  0.0000E+00  0.0000E+00
    -12.738  0.0000E+00  0.0000E+00
    -12.626  0.0000E+00  0.0000E+00
    -12.514  0.0000E+00  0.0000E+00
    -12.402  0.0000E+00  0.0000E+00
    -12.290  0.0000E+00  0.0000E+00
    -12.178  0.0000E+00  0.0000E+00
    -12.066  0.0000E+00  0.0000E+00
    -11.954  0.0000E+00  0.0000E+00
    -11.842  0.7618E-15  0.8535E-16
    -11.730  0.3106E-10  0.3479E-11
    -11.618  0.1099E-06  0.1231E-07
    -11.506  0.3532E-04  0.3969E-05
    -11.394  0.1130E-02  0.1306E-03
    -11.282  0.4173E-02  0.5981E-03
    -11.170  0.1985E-02  0.8205E-03
    -11.058  0.1136E-03  0.8333E-03
    -10.946  0.6711E-06  0.8333E-03
    -10.834  0.3670E-09  0.8333E-03
    -10.722  0.1790E-13  0.8333E-03
    -10.610  0.1922E-10  0.8333E-03
    -10.497  0.1014E-06  0.8333E-03
    -10.385  0.4817E-04  0.8387E-03
    -10.273  0.2233E-02  0.1089E-02
    -10.161  0.1164E-01  0.2393E-02
    -10.049  0.7755E-02  0.3261E-02
     -9.937  0.6358E-03  0.3333E-02
     -9.825  0.5507E-05  0.3333E-02
     -9.713  0.4477E-08  0.3333E-02
     -9.601  0.3215E-12  0.3333E-02
     -9.489  0.2467E-10  0.3333E-02
     -9.377  0.1224E-06  0.3333E-02
     -9.265  0.5467E-04  0.3339E-02
     -9.153  0.2392E-02  0.3607E-02
     -9.041  0.1181E-01  0.4931E-02
     -8.929  0.7471E-02  0.5768E-02
     -8.817  0.5794E-03  0.5833E-02
     -8.705  0.4729E-05  0.5833E-02
     -8.593  0.3615E-08  0.5833E-02
     -8.481  0.2558E-12  0.5833E-02
     -8.369  0.3052E-09  0.5833E-02
     -8.257  0.7166E-06  0.5833E-02
     -8.145  0.1716E-03  0.5853E-02
     -8.033  0.4673E-02  0.6376E-02
     -7.921  0.1641E-01  0.8214E-02
     -7.809  0.7999E-02  0.9111E-02
     -7.697  0.4979E-03  0.9166E-02
     -7.585  0.3346E-05  0.9167E-02
     -7.473  0.2141E-08  0.9167E-02
     -7.361  0.3241E-11  0.9167E-02
     -7.249  0.3019E-07  0.9167E-02
     -7.137  0.2595E-04  0.9170E-02
     -7.025  0.2123E-02  0.9407E-02
     -6.913  0.1877E-01  0.1151E-01
     -6.801  0.2077E-01  0.1384E-01
     -6.688  0.2905E-02  0.1416E-01
     -6.576  0.4462E-04  0.1417E-01
     -6.464  0.6598E-07  0.1417E-01
     -6.352  0.4448E-06  0.1417E-01
     -6.240  0.1291E-03  0.1418E-01
     -6.128  0.3747E-02  0.1460E-01
     -6.016  0.1265E-01  0.1602E-01
     -5.904  0.5504E-02  0.1663E-01
     -5.792  0.2864E-03  0.1667E-01
     -5.680  0.1528E-05  0.1667E-01
     -5.568  0.7526E-09  0.1667E-01
     -5.456  0.3631E-09  0.1667E-01
     -5.344  0.8980E-06  0.1667E-01
     -5.232  0.2038E-03  0.1669E-01
     -5.120  0.4692E-02  0.1722E-01
     -5.008  0.1276E-01  0.1865E-01
     -4.896  0.5193E-02  0.1923E-01
     -4.784  0.8312E-02  0.2016E-01
     -4.672  0.1139E-01  0.2143E-01
     -4.560  0.2036E-02  0.2166E-01
     -4.448  0.4069E-04  0.2167E-01
     -4.336  0.4755E-06  0.2167E-01
     -4.224  0.1512E-03  0.2168E-01
     -4.112  0.5687E-02  0.2232E-01
     -4.000  0.2442E-01  0.2506E-01
     -3.888  0.1347E-01  0.2656E-01
     -3.776  0.9029E-03  0.2667E-01
     -3.664  0.6309E-05  0.2667E-01
     -3.552  0.4106E-08  0.2667E-01
     -3.440  0.2349E-12  0.2667E-01
     -3.328  0.1517E-12  0.2667E-01
     -3.216  0.2505E-08  0.2667E-01
     -3.104  0.3638E-05  0.2667E-01
     -2.991  0.4931E-03  0.2672E-01
     -2.879  0.6990E-02  0.2751E-01
     -2.767  0.1208E-01  0.2886E-01
     -2.655  0.2680E-02  0.2916E-01
     -2.543  0.6758E-04  0.2917E-01
     -2.431  0.1677E-06  0.2917E-01
     -2.319  0.5297E-10  0.2917E-01
     -2.207  0.8582E-07  0.2917E-01
     -2.095  0.4301E-04  0.2917E-01
     -1.983  0.2098E-02  0.2941E-01
     -1.871  0.1147E-01  0.3069E-01
     -1.759  0.8008E-02  0.3159E-01
     -1.647  0.1129E-02  0.3172E-01
     -1.535  0.9733E-02  0.3281E-01
     -1.423  0.2550E-01  0.3566E-01
     -1.311  0.8623E-02  0.3663E-01
     -1.199  0.3876E-03  0.3667E-01
     -1.087  0.2439E-02  0.3694E-01
     -0.975  0.1474E-01  0.3860E-01
     -0.863  0.1142E-01  0.3987E-01
     -0.751  0.1108E-02  0.4000E-01
     -0.639  0.1162E-04  0.4000E-01
     -0.527  0.1625E-07  0.4000E-01
     -0.415  0.6827E-05  0.4000E-01
     -0.303  0.9482E-03  0.4011E-01
     -0.191  0.1375E-01  0.4165E-01
     -0.079  0.2428E-01  0.4437E-01
      0.033  0.5504E-02  0.4498E-01
      0.145  0.1421E-03  0.4500E-01
      0.257  0.3615E-06  0.4500E-01
      0.369  0.8310E-10  0.4500E-01
      0.481  0.1655E-14  0.4500E-01
      0.593  0.0000E+00  0.4500E-01
      0.705  0.9910E-17  0.4500E-01
      0.818  0.1426E-11  0.4500E-01
      0.930  0.1656E-07  0.4500E-01
      1.042  0.1702E-04  0.4500E-01
      1.154  0.1654E-02  0.4519E-01
      1.266  0.1716E-01  0.4711E-01
      1.378  0.2211E-01  0.4959E-01
      1.490  0.3623E-02  0.4999E-01
      1.602  0.6609E-04  0.5000E-01
      1.714  0.6494E-04  0.5001E-01
      1.826  0.3432E-02  0.5039E-01
      1.938  0.2138E-01  0.5279E-01
      2.050  0.1928E-01  0.5495E-01
      2.162  0.1250E-01  0.5635E-01
      2.274  0.1265E-01  0.5776E-01
      2.386  0.1352E-01  0.5928E-01
      2.498  0.6078E-02  0.5996E-01
      2.610  0.3552E-03  0.6000E-01
      2.722  0.2149E-05  0.6000E-01
      2.834  0.1205E-08  0.6000E-01
      2.946  0.7986E-09  0.6000E-01
      3.058  0.1954E-05  0.6000E-01
      3.170  0.4543E-03  0.6005E-01
      3.282  0.1184E-01  0.6138E-01
      3.394  0.4468E-01  0.6638E-01
      3.506  0.2916E-01  0.6965E-01
      3.618  0.3607E-02  0.7005E-01
      3.730  0.7175E-02  0.7086E-01
      3.842  0.1201E-01  0.7220E-01
      3.954  0.2591E-02  0.7249E-01
      4.066  0.6347E-04  0.7250E-01
      4.178  0.1544E-05  0.7250E-01
      4.290  0.2703E-03  0.7253E-01
      4.402  0.5486E-02  0.7315E-01
      4.515  0.1646E-01  0.7499E-01
      4.627  0.1659E-01  0.7685E-01
      4.739  0.8111E-02  0.7776E-01
      4.851  0.1222E-01  0.7913E-01
      4.963  0.7264E-02  0.7994E-01
      5.075  0.5538E-03  0.8000E-01
      5.187  0.1077E-02  0.8012E-01
      5.299  0.9623E-02  0.8120E-01
      5.411  0.1659E-01  0.8306E-01
      5.523  0.3224E-01  0.8667E-01
      5.635  0.3931E-01  0.9108E-01
      5.747  0.1214E-01  0.9244E-01
      5.859  0.5754E-03  0.9250E-01
      5.971  0.1682E-03  0.9252E-01
      6.083  0.4237E-02  0.9299E-01
      6.195  0.1274E-01  0.9442E-01
      6.307  0.4943E-02  0.9497E-01
      6.419  0.2274E-03  0.9500E-01
      6.531  0.3953E-05  0.9500E-01
      6.643  0.4273E-03  0.9505E-01
      6.755  0.6577E-02  0.9579E-01
      6.867  0.1228E-01  0.9716E-01
      6.979  0.3162E-02  0.9752E-01
      7.091  0.4062E-02  0.9797E-01
      7.203  0.1039E-01  0.9913E-01
      7.315  0.6508E-02  0.9986E-01
      7.427  0.1251E-02  0.1000E+00
      7.539  0.2575E-02  0.1003E+00
      7.651  0.1216E-01  0.1017E+00
      7.763  0.1187E-01  0.1030E+00
      7.875  0.1329E-01  0.1045E+00
      7.987  0.4520E-02  0.1050E+00
      8.099  0.1883E-03  0.1050E+00
      8.211  0.7943E-06  0.1050E+00
      8.324  0.3070E-09  0.1050E+00
      8.436  0.1036E-13  0.1050E+00
      8.548  0.1218E-11  0.1050E+00
      8.660  0.1136E-07  0.1050E+00
      8.772  0.9416E-05  0.1050E+00
      8.884  0.7436E-03  0.1051E+00
      8.996  0.6362E-02  0.1058E+00
      9.108  0.6824E-02  0.1066E+00
      9.220  0.9241E-03  0.1067E+00
      9.332  0.1371E-04  0.1067E+00
      9.444  0.1950E-07  0.1067E+00
      9.556  0.2474E-11  0.1067E+00
      9.668  0.2643E-16  0.1067E+00
      9.780  0.0000E+00  0.1067E+00
      9.892  0.0000E+00  0.1067E+00
     10.004  0.0000E+00  0.1067E+00
     10.116  0.0000E+00  0.1067E+00
     10.228  0.0000E+00  0.1067E+00
     10.340  0.0000E+00  0.1067E+00
     10.452  0.0000E+00  0.1067E+00
     10.564  0.0000E+00  0.1067E+00
     10.676  0.0000E+00  0.1067E+00
     10.788  0.0000E+00  0.1067E+00
     10.900  0.0000E+00  0.1067E+00
     11.012  0.0000E+00  0.1067E+00
     11.124  0.0000E+00  0.1067E+00
     11.236  0.0000E+00  0.1067E+00
     11.348  0.0000E+00  0.1067E+00
     11.460  0.0000E+00  0.1067E+00
     11.572  0.0000E+00  0.1067E+00
     11.684  0.0000E+00  0.1067E+00
     11.796  0.0000E+00  0.1067E+00
     11.908  0.0000E+00  0.1067E+00
     12.020  0.0000E+00  0.1067E+00
     12.133  0.0000E+00  0.1067E+00
     12.245  0.0000E+00  0.1067E+00
     12.357  0.0000E+00  0.1067E+00
     12.469  0.0000E+00  0.1067E+00
     12.581  0.0000E+00  0.1067E+00
     12.693  0.0000E+00  0.1067E+00
     12.805  0.0000E+00  0.1067E+00
     12.917  0.0000E+00  0.1067E+00
     13.029  0.0000E+00  0.1067E+00
     13.141  0.0000E+00  0.1067E+00
     13.253  0.0000E+00  0.1067E+00
     13.365  0.0000E+00  0.1067E+00
     13.477  0.0000E+00  0.1067E+00
     13.589  0.0000E+00  0.1067E+00
     13.701  0.0000E+00  0.1067E+00
     13.813  0.0000E+00  0.1067E+00
     13.925  0.0000E+00  0.1067E+00
     14.037  0.7433E-17  0.1067E+00
     14.149  0.9434E-12  0.1067E+00
     14.261  0.1027E-07  0.1067E+00
     14.373  0.9905E-05  0.1067E+00
     14.485  0.9050E-03  0.1068E+00
     14.597  0.8907E-02  0.1078E+00
     14.709  0.1279E-01  0.1092E+00
     14.821  0.1296E-01  0.1107E+00
     14.933  0.8303E-02  0.1116E+00
     15.045  0.7508E-03  0.1117E+00
     15.157  0.7387E-05  0.1117E+00
     15.269  0.5950E-04  0.1117E+00
     15.381  0.2503E-02  0.1120E+00
     15.493  0.1192E-01  0.1133E+00
     15.605  0.7280E-02  0.1141E+00
     15.717  0.5438E-03  0.1142E+00
     15.830  0.7948E-05  0.1142E+00
     15.942  0.4247E-03  0.1142E+00
     16.054  0.5174E-02  0.1148E+00
     16.166  0.7756E-02  0.1157E+00
     16.278  0.1554E-02  0.1158E+00
     16.390  0.3043E-02  0.1162E+00
     16.502  0.1543E-01  0.1179E+00
     16.614  0.1035E-01  0.1191E+00
     16.726  0.8800E-03  0.1192E+00
     16.838  0.8390E-05  0.1192E+00
     16.950  0.8149E-04  0.1192E+00
     17.062  0.4194E-02  0.1196E+00
     17.174  0.2658E-01  0.1226E+00
     17.286  0.2894E-01  0.1259E+00
     17.398  0.7011E-02  0.1267E+00
     17.510  0.5968E-02  0.1273E+00
     17.622  0.2538E-01  0.1302E+00
     17.734  0.2263E-01  0.1327E+00
     17.846  0.1168E-01  0.1340E+00
     17.958  0.4956E-02  0.1346E+00
     18.070  0.8637E-02  0.1355E+00
     18.182  0.6964E-02  0.1363E+00
     18.294  0.1650E-01  0.1382E+00
     18.406  0.8448E-02  0.1391E+00
     18.518  0.5485E-03  0.1392E+00
     18.630  0.4021E-05  0.1392E+00
     18.742  0.5818E-04  0.1392E+00
     18.854  0.3066E-02  0.1395E+00
     18.966  0.2008E-01  0.1418E+00
     19.078  0.1920E-01  0.1439E+00
     19.190  0.8484E-02  0.1449E+00
     19.302  0.1256E-01  0.1463E+00
     19.414  0.3390E-02  0.1467E+00
     19.526  0.1060E-03  0.1467E+00
     19.639  0.3296E-06  0.1467E+00
     19.751  0.9317E-10  0.1467E+00
     19.863  0.2284E-14  0.1467E+00
     19.975  0.0000E+00  0.1467E+00
     20.087  0.0000E+00  0.1467E+00
     20.199  0.0000E+00  0.1467E+00
     20.311  0.0000E+00  0.1467E+00
     20.423  0.0000E+00  0.1467E+00
     20.535  0.0000E+00  0.1467E+00
     20.647  0.0000E+00  0.1467E+00
     20.759  0.0000E+00  0.1467E+00
