unknown system                          
           1
     3.560745    0.000000    0.000000
     0.000000    3.560745    0.000000
     0.000000    0.000000    3.560745
   C 
     8
Direct configuration=     1
   0.12500000  0.12500000  0.62500000
   0.37500000  0.37500000  0.87500000
   0.12500000  0.62500000  0.12500000
   0.37500000  0.87500000  0.37500000
   0.62500000  0.12500000  0.12500000
   0.87500000  0.37500000  0.37500000
   0.62500000  0.62500000  0.62500000
   0.87500000  0.87500000  0.87500000
unknown system                          
           1
     3.566518    0.000000    0.000000
     0.000000    3.566518   -0.000000
    -0.000000    0.000000    3.566518
   C 
     8
Direct configuration=     2
   0.12500000  0.12500000  0.62500000
   0.37500000  0.37500000  0.87500000
   0.12500000  0.62500000  0.12500000
   0.37500000  0.87500000  0.37500000
   0.62500000  0.12500000  0.12500000
   0.87500000  0.37500000  0.37500000
   0.62500000  0.62500000  0.62500000
   0.87500000  0.87500000  0.87500000
unknown system                          
           1
     3.573437    0.000000    0.000000
     0.000000    3.573437   -0.000000
    -0.000000    0.000000    3.573437
   C 
     8
Direct configuration=     3
   0.12500000  0.12500000  0.62500000
   0.37500000  0.37500000  0.87500000
   0.12500000  0.62500000  0.12500000
   0.37500000  0.87500000  0.37500000
   0.62500000  0.12500000  0.12500000
   0.87500000  0.37500000  0.37500000
   0.62500000  0.62500000  0.62500000
   0.87500000  0.87500000  0.87500000
unknown system                          
           1
     3.573528    0.000000    0.000000
     0.000000    3.573528   -0.000000
    -0.000000    0.000000    3.573528
   C 
     8
Direct configuration=     4
   0.12500000  0.12500000  0.62500000
   0.37500000  0.37500000  0.87500000
   0.12500000  0.62500000  0.12500000
   0.37500000  0.87500000  0.37500000
   0.62500000  0.12500000  0.12500000
   0.87500000  0.37500000  0.37500000
   0.62500000  0.62500000  0.62500000
   0.87500000  0.87500000  0.87500000
