<?xml version="1.0" encoding="ISO-8859-1"?>
<modeling>
 <generator>
  <i name="program" type="string">vasp </i>
  <i name="version" type="string">6.2.1  </i>
  <i name="subversion" type="string">16May21 (build Oct 21 2023 21:03:18) complex                          parallel </i>
  <i name="platform" type="string">LinuxIFC </i>
  <i name="date" type="string">2024 05 27 </i>
  <i name="time" type="string">12:13:52 </i>
 </generator>
 <incar>
  <i type="int" name="ISTART">     0</i>
  <i type="string" name="PREC">accurate</i>
  <i type="int" name="IALGO">    48</i>
  <i type="string" name="ALGO">normal</i>
  <i type="int" name="NSIM">     4</i>
  <i type="int" name="IBRION">     2</i>
  <i name="EDIFF">      0.00000100</i>
  <i name="EDIFFG">     -0.00100000</i>
  <i type="int" name="NSW">   300</i>
  <i type="int" name="ISIF">     3</i>
  <i type="int" name="ISYM">     2</i>
  <i name="ENCUT">    500.00000000</i>
  <i name="POTIM">      0.10000000</i>
  <i type="logical" name="LREAL"> F  </i>
  <i type="logical" name="LPLANE"> T  </i>
  <i type="int" name="ISMEAR">     0</i>
  <i name="SIGMA">      0.10000000</i>
  <i name="PSTRESS">      0.00100000</i>
  <i type="logical" name="LWAVE"> F  </i>
  <i type="logical" name="LCHARG"> F  </i>
  <i type="string" name="GGA">PE</i>
 </incar>
 <primitive_cell>
  <structure name="primitive_cell" >
   <crystal>
    <varray name="basis" >
     <v>       1.78037256      -1.78037256       0.00000000 </v>
     <v>       1.78037256       0.00000000       1.78037255 </v>
     <v>       0.00000000      -1.78037256       1.78037256 </v>
    </varray>
    <i name="volume">     11.28658790 </i>
    <varray name="rec_basis" >
     <v>       0.28084010      -0.28084010      -0.28084010 </v>
     <v>       0.28084010       0.28084010       0.28084010 </v>
     <v>      -0.28084010      -0.28084010       0.28084010 </v>
    </varray>
   </crystal>
   <varray name="positions" >
    <v>       0.37500000       0.87500000       0.37500000 </v>
    <v>       0.12500000       0.62500000       0.12500000 </v>
   </varray>
  </structure>
  <varray name="primitive_index" >
   <v type="int" >        1 </v>
   <v type="int" >        2 </v>
  </varray>
 </primitive_cell>
 <kpoints>
  <generation param="Monkhorst-Pack">
   <v type="int" name="divisions">       4        4        4 </v>
   <v name="usershift">      0.00000000       0.00000000       0.00000000 </v>
   <v name="genvec1">      0.25000000       0.00000000       0.00000000 </v>
   <v name="genvec2">      0.00000000       0.25000000       0.00000000 </v>
   <v name="genvec3">      0.00000000       0.00000000       0.25000000 </v>
   <v name="shift">      0.50000000       0.50000000       0.50000000 </v>
  </generation>
  <varray name="kpointlist" >
   <v>       0.12500000       0.12500000       0.12500000 </v>
   <v>       0.37500000       0.12500000       0.12500000 </v>
   <v>       0.37500000       0.37500000       0.12500000 </v>
   <v>       0.37500000       0.37500000       0.37500000 </v>
  </varray>
  <varray name="weights" >
   <v>       0.12500000 </v>
   <v>       0.37500000 </v>
   <v>       0.37500000 </v>
   <v>       0.12500000 </v>
  </varray>
 </kpoints>
 <parameters>
  <separator name="general" >
   <i type="string" name="SYSTEM">unknown system</i>
   <i type="logical" name="LCOMPAT"> F  </i>
  </separator>
  <separator name="electronic" >
   <i type="string" name="PREC">accura</i>
   <i name="ENMAX">    500.00000000</i>
   <i name="ENAUG">    644.87300000</i>
   <i name="EDIFF">      0.00000100</i>
   <i type="int" name="IALGO">    38</i>
   <i type="int" name="IWAVPR">    11</i>
   <i type="int" name="NBANDS">    22</i>
   <i type="int" name="NBANDSLOW">    -1</i>
   <i type="int" name="NBANDSHIGH">    -1</i>
   <i name="NELECT">     32.00000000</i>
   <i type="int" name="TURBO">     0</i>
   <i type="int" name="IRESTART">     0</i>
   <i type="int" name="NREBOOT">     0</i>
   <i type="int" name="NMIN">     0</i>
   <i name="EREF">      0.00000000</i>
   <separator name="electronic smearing" >
    <i type="int" name="ISMEAR">     0</i>
    <i name="SIGMA">      0.10000000</i>
    <i name="KSPACING">      0.50000000</i>
    <i type="logical" name="KGAMMA"> T  </i>
    <i type="logical" name="KBLOWUP"> T  </i>
   </separator>
   <separator name="electronic projectors" >
    <i type="logical" name="LREAL"> F  </i>
    <v name="ROPT">      0.00000000</v>
    <i type="int" name="LMAXPAW">  -100</i>
    <i type="int" name="LMAXMIX">     2</i>
    <i type="logical" name="NLSPLINE"> F  </i>
   </separator>
   <separator name="electronic startup" >
    <i type="int" name="ISTART">     0</i>
    <i type="int" name="ICHARG">     2</i>
    <i type="int" name="INIWAV">     1</i>
   </separator>
   <separator name="electronic spin" >
    <i type="int" name="ISPIN">     1</i>
    <i type="logical" name="LNONCOLLINEAR"> F  </i>
    <v name="MAGMOM">      1.00000000      1.00000000      1.00000000      1.00000000      1.00000000      1.00000000      1.00000000      1.00000000</v>
    <i name="NUPDOWN">     -1.00000000</i>
    <i type="logical" name="LSORBIT"> F  </i>
    <v name="SAXIS">      0.00000000      0.00000000      1.00000000</v>
    <i type="logical" name="LSPIRAL"> F  </i>
    <v name="QSPIRAL">      0.00000000      0.00000000      0.00000000</v>
    <i type="logical" name="LZEROZ"> F  </i>
   </separator>
   <separator name="electronic exchange-correlation" >
    <i type="logical" name="LASPH"> F  </i>
    <i type="logical" name="LMETAGGA"> F  </i>
   </separator>
   <separator name="electronic convergence" >
    <i type="int" name="NELM">    60</i>
    <i type="int" name="NELMDL">    -5</i>
    <i type="int" name="NELMIN">     2</i>
    <i name="ENINI">    500.00000000</i>
    <separator name="electronic convergence detail" >
     <i type="logical" name="LDIAG"> T  </i>
     <i type="logical" name="LSUBROT"> F  </i>
     <i name="WEIMIN">      0.00100000</i>
     <i name="EBREAK">      0.00000001</i>
     <i name="DEPER">      0.30000000</i>
     <i type="int" name="NRMM">     4</i>
     <i name="TIME">      0.40000000</i>
    </separator>
   </separator>
   <separator name="electronic mixer" >
    <i name="AMIX">      0.40000000</i>
    <i name="BMIX">      1.00000000</i>
    <i name="AMIN">      0.10000000</i>
    <i name="AMIX_MAG">      1.60000000</i>
    <i name="BMIX_MAG">      1.00000000</i>
    <separator name="electronic mixer details" >
     <i type="int" name="IMIX">     4</i>
     <i type="logical" name="MIXFIRST"> F  </i>
     <i type="int" name="MAXMIX">   -45</i>
     <i name="WC">    100.00000000</i>
     <i type="int" name="INIMIX">     1</i>
     <i type="int" name="MIXPRE">     1</i>
     <i type="int" name="MREMOVE">     5</i>
    </separator>
   </separator>
   <separator name="electronic dipolcorrection" >
    <i type="logical" name="LDIPOL"> F  </i>
    <i type="logical" name="LMONO"> F  </i>
    <i type="int" name="IDIPOL">     0</i>
    <i name="EPSILON">      1.00000000</i>
    <v name="DIPOL">   -100.00000000   -100.00000000   -100.00000000</v>
    <i name="EFIELD">      0.00000000</i>
   </separator>
  </separator>
  <separator name="grids" >
   <i type="int" name="NGX">    28</i>
   <i type="int" name="NGY">    28</i>
   <i type="int" name="NGZ">    28</i>
   <i type="int" name="NGXF">    56</i>
   <i type="int" name="NGYF">    56</i>
   <i type="int" name="NGZF">    56</i>
   <i type="logical" name="ADDGRID"> F  </i>
  </separator>
  <separator name="ionic" >
   <i type="int" name="NSW">   300</i>
   <i type="int" name="IBRION">     2</i>
   <i type="int" name="MDALGO">     0</i>
   <i type="int" name="ISIF">     3</i>
   <i name="PSTRESS">      0.00100000</i>
   <i name="EDIFFG">     -0.00100000</i>
   <i type="int" name="NFREE">     1</i>
   <i name="POTIM">      0.10000000</i>
   <i name="SMASS">     -3.00000000</i>
   <i name="SCALEE">      1.00000000</i>
  </separator>
  <separator name="ionic md" >
   <i name="TEBEG">      0.00010000</i>
   <i name="TEEND">      0.00010000</i>
   <i type="int" name="NBLOCK">     1</i>
   <i type="int" name="KBLOCK">   300</i>
   <i type="int" name="NPACO">   256</i>
   <i name="APACO">     16.00000000</i>
  </separator>
  <separator name="symmetry" >
   <i type="int" name="ISYM">     2</i>
   <i name="SYMPREC">      0.00001000</i>
  </separator>
  <separator name="dos" >
   <i type="int" name="LORBIT">     0</i>
   <v name="RWIGS">     -1.00000000</v>
   <i type="int" name="NEDOS">   301</i>
   <i name="EMIN">     10.00000000</i>
   <i name="EMAX">    -10.00000000</i>
   <i name="EFERMI">      0.00000000</i>
  </separator>
  <separator name="writing" >
   <i type="int" name="NWRITE">     2</i>
   <i type="logical" name="LWAVE"> F  </i>
   <i type="logical" name="LDOWNSAMPLE"> F  </i>
   <i type="logical" name="LCHARG"> F  </i>
   <i type="logical" name="LPARD"> F  </i>
   <i type="logical" name="LVTOT"> F  </i>
   <i type="logical" name="LVHAR"> F  </i>
   <i type="logical" name="LELF"> F  </i>
   <i type="logical" name="LOPTICS"> F  </i>
   <v name="STM">      0.00000000      0.00000000      0.00000000      0.00000000      0.00000000      0.00000000      0.00000000</v>
  </separator>
  <separator name="performance" >
   <i type="int" name="NPAR">     2</i>
   <i type="int" name="NSIM">     4</i>
   <i type="int" name="NBLK">    -1</i>
   <i type="logical" name="LPLANE"> T  </i>
   <i type="logical" name="LSCALAPACK"> T  </i>
   <i type="logical" name="LSCAAWARE"> F  </i>
   <i type="logical" name="LSCALU"> F  </i>
   <i type="logical" name="LASYNC"> F  </i>
   <i type="logical" name="LORBITALREAL"> F  </i>
  </separator>
  <separator name="miscellaneous" >
   <i type="int" name="IDIOT">     3</i>
   <i type="int" name="PHON_NSTRUCT">    -1</i>
   <i type="logical" name="LMUSIC"> F  </i>
   <v name="POMASS">     12.01100000</v>
   <v name="DARWINR">      0.00000000</v>
   <v name="DARWINV">      1.00000000</v>
   <i type="logical" name="LCORR"> T  </i>
  </separator>
  <i type="logical" name="GGA_COMPAT"> T  </i>
  <i type="logical" name="LBERRY"> F  </i>
  <i type="int" name="ICORELEVEL">     0</i>
  <i type="logical" name="LDAU"> F  </i>
  <i type="int" name="I_CONSTRAINED_M">     0</i>
  <separator name="electronic exchange-correlation" >
   <i type="string" name="GGA">PE</i>
   <i type="int" name="VOSKOWN">     0</i>
   <i type="logical" name="LHFCALC"> F  </i>
   <i type="string" name="PRECFOCK"></i>
   <i type="logical" name="LSYMGRAD"> F  </i>
   <i type="logical" name="LHFONE"> F  </i>
   <i type="logical" name="LRHFCALC"> F  </i>
   <i type="logical" name="LTHOMAS"> F  </i>
   <i type="logical" name="LMODELHF"> F  </i>
   <i type="logical" name="LFOCKACE"> F  </i>
   <i name="ENCUT4O">     -1.00000000</i>
   <i type="int" name="EXXOEP">     0</i>
   <i type="int" name="FOURORBIT">     0</i>
   <i name="AEXX">      0.00000000</i>
   <i name="HFALPHA">      0.00000000</i>
   <i name="MCALPHA">      0.00000000</i>
   <i name="ALDAX">      1.00000000</i>
   <i name="AGGAX">      1.00000000</i>
   <i name="ALDAC">      1.00000000</i>
   <i name="AGGAC">      1.00000000</i>
   <i type="int" name="NKREDX">     1</i>
   <i type="int" name="NKREDY">     1</i>
   <i type="int" name="NKREDZ">     1</i>
   <i type="logical" name="SHIFTRED"> F  </i>
   <i type="logical" name="ODDONLY"> F  </i>
   <i type="logical" name="EVENONLY"> F  </i>
   <i type="int" name="LMAXFOCK">     0</i>
   <i type="int" name="NMAXFOCKAE">     0</i>
   <i type="logical" name="LFOCKAEDFT"> F  </i>
   <i name="HFSCREEN">      0.00000000</i>
   <i name="HFSCREENC">      0.00000000</i>
   <i type="int" name="NBANDSGWLOW">     0</i>
  </separator>
  <separator name="vdW DFT" >
   <i type="logical" name="LUSE_VDW"> F  </i>
   <i name="Zab_VDW">     -0.84910000</i>
   <i name="PARAM1">      0.12340000</i>
   <i name="PARAM2">      1.00000000</i>
   <i name="PARAM3">      0.00000000</i>
  </separator>
  <separator name="model GW" >
   <i type="int" name="MODEL_GW">     0</i>
   <i name="MODEL_EPS0">      3.38597637</i>
   <i name="MODEL_ALPHA">      1.00000000</i>
  </separator>
  <separator name="linear response parameters" >
   <i type="logical" name="LEPSILON"> F  </i>
   <i type="logical" name="LRPA"> F  </i>
   <i type="logical" name="LNABLA"> F  </i>
   <i type="logical" name="LVEL"> F  </i>
   <i type="int" name="KINTER">     0</i>
   <i name="CSHIFT">      0.10000000</i>
   <i name="OMEGAMAX">     -1.00000000</i>
   <i name="DEG_THRESHOLD">      0.00200000</i>
   <i name="RTIME">     -0.10000000</i>
   <i name="WPLASMAI">      0.00000000</i>
   <v name="DFIELD">      0.00000000      0.00000000      0.00000000</v>
   <v name="WPLASMA">      0.00000000      0.00000000      0.00000000      0.00000000      0.00000000      0.00000000      0.00000000      0.00000000      0.00000000</v>
  </separator>
  <separator name="orbital magnetization" >
   <i type="logical" name="NUCIND"> F  </i>
   <v name="MAGPOS">      0.00000000      0.00000000      0.00000000</v>
   <i type="logical" name="LNICSALL"> T  </i>
   <i type="logical" name="ORBITALMAG"> F  </i>
   <i type="logical" name="LMAGBLOCH"> F  </i>
   <i type="logical" name="LCHIMAG"> F  </i>
   <i type="logical" name="LGAUGE"> T  </i>
   <i type="int" name="MAGATOM">     0</i>
   <v name="MAGDIPOL">      0.00000000      0.00000000      0.00000000</v>
   <v name="AVECCONST">      0.00000000      0.00000000      0.00000000</v>
  </separator>
  <separator name="response functions" >
   <i type="logical" name="LFINITE_TEMPERATURE"> F  </i>
   <i type="logical" name="LADDER"> F  </i>
   <i type="logical" name="LRPAFORCE"> F  </i>
   <i type="logical" name="LFXC"> F  </i>
   <i type="logical" name="LHARTREE"> T  </i>
   <i type="int" name="IBSE">     0</i>
   <v type="int" name="KPOINT">    -1     0     0     0</v>
   <i type="logical" name="LTCTC"> F  </i>
   <i type="logical" name="LTCTE"> F  </i>
   <i type="logical" name="LTETE"> F  </i>
   <i type="logical" name="LTRIPLET"> F  </i>
   <i type="logical" name="LFXCEPS"> F  </i>
   <i type="logical" name="LFXHEG"> F  </i>
   <i type="int" name="NATURALO">     2</i>
   <i type="logical" name="LHOLEGF"> F  </i>
   <i type="logical" name="L2ORDER"> F  </i>
   <i type="logical" name="LDMP1"> F  </i>
   <i type="logical" name="LMP2LT"> F  </i>
   <i type="logical" name="LSMP2LT"> F  </i>
   <i type="logical" name="LGWLF"> F  </i>
   <i name="ENCUTGW">     -2.00000000</i>
   <i name="ENCUTGWSOFT">     -2.00000000</i>
   <i name="ENCUTLF">     -1.00000000</i>
   <i type="logical" name="LESF_SPLINES"> F  </i>
   <i type="int" name="LMAXMP2">    -1</i>
   <i name="SCISSOR">      0.00000000</i>
   <i type="int" name="NOMEGA">     0</i>
   <i type="int" name="NOMEGAR">     0</i>
   <i type="int" name="NBANDSGW">    -1</i>
   <i type="int" name="NBANDSO">    -1</i>
   <i type="int" name="NBANDSV">    -1</i>
   <i type="int" name="NELM">     1</i>
   <i type="int" name="NELMHF">     1</i>
   <i type="int" name="DIM">     3</i>
   <i type="int" name="IESPILON">     4</i>
   <i type="int" name="ANTIRES">     0</i>
   <i name="OMEGAMAX">    -30.00000000</i>
   <i name="OMEGAMIN">    -30.00000000</i>
   <i name="OMEGATL">   -200.00000000</i>
   <i type="int" name="OMEGAGRID">     0</i>
   <i name="CSHIFT">     -0.10000000</i>
   <i type="logical" name="LSELFENERGY"> F  </i>
   <i type="logical" name="LSPECTRAL"> F  </i>
   <i type="logical" name="LSPECTRALGW"> F  </i>
   <i type="logical" name="LSINGLES"> F  </i>
   <i type="logical" name="LFERMIGW"> F  </i>
   <i type="logical" name="ODDONLYGW"> F  </i>
   <i type="logical" name="EVENONLYGW"> F  </i>
   <i type="int" name="NKREDLFX">     1</i>
   <i type="int" name="NKREDLFY">     1</i>
   <i type="int" name="NKREDLFZ">     1</i>
   <i type="int" name="MAXMEM">  2800</i>
   <i type="int" name="TELESCOPE">     0</i>
   <i type="int" name="NTAUPAR">    -1</i>
   <i type="int" name="NOMEGAPAR">    -1</i>
   <i name="DAMP_NEWTON">      0.80000001</i>
   <i name="LAMBDA">      1.00000000</i>
  </separator>
  <separator name="External order field" >
   <i name="OFIELD_KAPPA">      0.00000000</i>
   <v name="OFIELD_K">      0.00000000      0.00000000      0.00000000</v>
   <i name="OFIELD_Q6_NEAR">      0.00000000</i>
   <i name="OFIELD_Q6_FAR">      0.00000000</i>
   <i name="OFIELD_A">      0.00000000</i>
  </separator>
 </parameters>
 <atominfo>
  <atoms>       8 </atoms>
  <types>       1 </types>
  <array name="atoms" >
   <dimension dim="1">ion</dimension>
   <field type="string">element</field>
   <field type="int">atomtype</field>
   <set>
    <rc><c>C </c><c>   1</c></rc>
    <rc><c>C </c><c>   1</c></rc>
    <rc><c>C </c><c>   1</c></rc>
    <rc><c>C </c><c>   1</c></rc>
    <rc><c>C </c><c>   1</c></rc>
    <rc><c>C </c><c>   1</c></rc>
    <rc><c>C </c><c>   1</c></rc>
    <rc><c>C </c><c>   1</c></rc>
   </set>
  </array>
  <array name="atomtypes" >
   <dimension dim="1">type</dimension>
   <field type="int">atomspertype</field>
   <field type="string">element</field>
   <field>mass</field>
   <field>valence</field>
   <field type="string">pseudopotential</field>
   <set>
    <rc><c>   8</c><c>C </c><c>     12.01100000</c><c>      4.00000000</c><c>  PAW_PBE C 08Apr2002                   </c></rc>
   </set>
  </array>
 </atominfo>
 <structure name="initialpos" >
  <crystal>
   <varray name="basis" >
    <v>       3.56074511       0.00000000       0.00000000 </v>
    <v>       0.00000000       3.56074511       0.00000000 </v>
    <v>       0.00000000       0.00000000       3.56074511 </v>
   </varray>
   <i name="volume">     45.14635161 </i>
   <varray name="rec_basis" >
    <v>       0.28084010       0.00000000       0.00000000 </v>
    <v>       0.00000000       0.28084010       0.00000000 </v>
    <v>       0.00000000       0.00000000       0.28084010 </v>
   </varray>
  </crystal>
  <varray name="positions" >
   <v>       0.12500000       0.12500000       0.62500000 </v>
   <v>       0.37500000       0.37500000       0.87500000 </v>
   <v>       0.12500000       0.62500000       0.12500000 </v>
   <v>       0.37500000       0.87500000       0.37500000 </v>
   <v>       0.62500000       0.12500000       0.12500000 </v>
   <v>       0.87500000       0.37500000       0.37500000 </v>
   <v>       0.62500000       0.62500000       0.62500000 </v>
   <v>       0.87500000       0.87500000       0.87500000 </v>
  </varray>
 </structure>
 <calculation>
  <scstep>
   <time name="dav">    0.11    0.11</time>
   <time name="total">    0.15    0.15</time>
   <energy>
    <i name="alphaZ">    116.45215254 </i>
    <i name="ewald">  -1394.20255771 </i>
    <i name="hartreedc">    -70.01144238 </i>
    <i name="XCdc">    109.74920565 </i>
    <i name="pawpsdc">    868.17637104 </i>
    <i name="pawaedc">   -872.73161751 </i>
    <i name="eentropy">     -0.02064090 </i>
    <i name="bandstr">    140.04899774 </i>
    <i name="atom">   1177.18737338 </i>
    <i name="e_fr_energy">     74.64784185 </i>
    <i name="e_wo_entrp">     74.66848275 </i>
    <i name="e_0_energy">     74.65816230 </i>
   </energy>
  </scstep>
  <scstep>
   <time name="dav">    0.15    0.15</time>
   <time name="total">    0.15    0.15</time>
   <energy>
    <i name="e_fr_energy">    -71.28224324 </i>
    <i name="e_wo_entrp">    -71.28224324 </i>
    <i name="e_0_energy">    -71.28224324 </i>
   </energy>
  </scstep>
  <scstep>
   <time name="dav">    0.15    0.15</time>
   <time name="total">    0.15    0.15</time>
   <energy>
    <i name="e_fr_energy">    -75.28834705 </i>
    <i name="e_wo_entrp">    -75.28834705 </i>
    <i name="e_0_energy">    -75.28834705 </i>
   </energy>
  </scstep>
  <scstep>
   <time name="dav">    0.16    0.16</time>
   <time name="total">    0.16    0.16</time>
   <energy>
    <i name="e_fr_energy">    -75.33188444 </i>
    <i name="e_wo_entrp">    -75.33188444 </i>
    <i name="e_0_energy">    -75.33188444 </i>
   </energy>
  </scstep>
  <scstep>
   <time name="dav">    0.17    0.17</time>
   <time name="total">    0.19    0.19</time>
   <energy>
    <i name="e_fr_energy">    -75.33257396 </i>
    <i name="e_wo_entrp">    -75.33257396 </i>
    <i name="e_0_energy">    -75.33257396 </i>
   </energy>
  </scstep>
  <scstep>
   <time name="dav">    0.15    0.15</time>
   <time name="total">    0.22    0.23</time>
   <energy>
    <i name="e_fr_energy">    -73.38629758 </i>
    <i name="e_wo_entrp">    -73.38629758 </i>
    <i name="e_0_energy">    -73.38629758 </i>
   </energy>
  </scstep>
  <scstep>
   <time name="dav">    0.14    0.14</time>
   <time name="total">    0.22    0.22</time>
   <energy>
    <i name="e_fr_energy">    -72.73134939 </i>
    <i name="e_wo_entrp">    -72.73134939 </i>
    <i name="e_0_energy">    -72.73134939 </i>
   </energy>
  </scstep>
  <scstep>
   <time name="dav">    0.16    0.16</time>
   <time name="total">    0.24    0.24</time>
   <energy>
    <i name="e_fr_energy">    -72.73759021 </i>
    <i name="e_wo_entrp">    -72.73759021 </i>
    <i name="e_0_energy">    -72.73759021 </i>
   </energy>
  </scstep>
  <scstep>
   <time name="dav">    0.15    0.15</time>
   <time name="total">    0.23    0.23</time>
   <energy>
    <i name="e_fr_energy">    -72.73772242 </i>
    <i name="e_wo_entrp">    -72.73772242 </i>
    <i name="e_0_energy">    -72.73772242 </i>
   </energy>
  </scstep>
  <scstep>
   <time name="dav">    0.17    0.17</time>
   <time name="total">    0.25    0.25</time>
   <energy>
    <i name="e_fr_energy">    -72.73779466 </i>
    <i name="e_wo_entrp">    -72.73779466 </i>
    <i name="e_0_energy">    -72.73779466 </i>
   </energy>
  </scstep>
  <scstep>
   <time name="dav">    0.13    0.13</time>
   <time name="total">    0.21    0.21</time>
   <energy>
    <i name="e_fr_energy">    -72.73779332 </i>
    <i name="e_wo_entrp">    -72.73779332 </i>
    <i name="e_0_energy">    -72.73779332 </i>
   </energy>
  </scstep>
  <scstep>
   <time name="dav">    0.13    0.13</time>
   <time name="total">    0.18    0.18</time>
   <energy>
    <i name="alphaZ">    116.45215254 </i>
    <i name="ewald">  -1394.20255771 </i>
    <i name="hartreedc">   -105.33369907 </i>
    <i name="XCdc">    112.97632934 </i>
    <i name="pawpsdc">   3098.25600311 </i>
    <i name="pawaedc">  -3103.62778063 </i>
    <i name="eentropy">     -0.00000000 </i>
    <i name="bandstr">     25.55438577 </i>
    <i name="atom">   1177.18737338 </i>
    <i name="e_fr_energy">    -72.73779328 </i>
    <i name="e_wo_entrp">    -72.73779328 </i>
    <i name="e_0_energy">    -72.73779328 </i>
   </energy>
  </scstep>
  <structure>
   <crystal>
    <varray name="basis" >
     <v>       3.56074511       0.00000000       0.00000000 </v>
     <v>       0.00000000       3.56074511       0.00000000 </v>
     <v>       0.00000000       0.00000000       3.56074511 </v>
    </varray>
    <i name="volume">     45.14635161 </i>
    <varray name="rec_basis" >
     <v>       0.28084010       0.00000000       0.00000000 </v>
     <v>       0.00000000       0.28084010       0.00000000 </v>
     <v>       0.00000000       0.00000000       0.28084010 </v>
    </varray>
   </crystal>
   <varray name="positions" >
    <v>       0.12500000       0.12500000       0.62500000 </v>
    <v>       0.37500000       0.37500000       0.87500000 </v>
    <v>       0.12500000       0.62500000       0.12500000 </v>
    <v>       0.37500000       0.87500000       0.37500000 </v>
    <v>       0.62500000       0.12500000       0.12500000 </v>
    <v>       0.87500000       0.37500000       0.37500000 </v>
    <v>       0.62500000       0.62500000       0.62500000 </v>
    <v>       0.87500000       0.87500000       0.87500000 </v>
   </varray>
  </structure>
  <varray name="forces" >
   <v>      -0.00000000       0.00000000      -0.00000000 </v>
   <v>      -0.00000000       0.00000000       0.00000000 </v>
   <v>      -0.00000000      -0.00000000      -0.00000000 </v>
   <v>       0.00000000       0.00000000       0.00000000 </v>
   <v>      -0.00000000      -0.00000000      -0.00000000 </v>
   <v>       0.00000000      -0.00000000       0.00000000 </v>
   <v>      -0.00000000      -0.00000000      -0.00000000 </v>
   <v>       0.00000000       0.00000000       0.00000000 </v>
  </varray>
  <varray name="stress" >
   <v>      47.70719485       0.00000000       0.00000000 </v>
   <v>       0.00000000      47.70719485      -0.00000000 </v>
   <v>      -0.00000000       0.00000000      47.70719485 </v>
  </varray>
  <energy>
   <i name="e_fr_energy">    -72.73776510 </i>
   <i name="e_wo_entrp">    -72.73776510 </i>
   <i name="e_0_energy">    -72.73776510 </i>
  </energy>
  <time name="totalsc">    2.64    2.64</time>
 </calculation>
 <calculation>
  <scstep>
   <time name="dav">    0.15    0.15</time>
   <time name="total">    0.23    0.23</time>
   <energy>
    <i name="alphaZ">    115.88757951 </i>
    <i name="ewald">  -1391.94582363 </i>
    <i name="hartreedc">   -105.16232916 </i>
    <i name="XCdc">    112.80206984 </i>
    <i name="pawpsdc">   3098.35341474 </i>
    <i name="pawaedc">  -3103.72512118 </i>
    <i name="eentropy">     -0.00000000 </i>
    <i name="bandstr">     23.85958402 </i>
    <i name="atom">   1177.18737338 </i>
    <i name="e_fr_energy">    -72.74325247 </i>
    <i name="e_wo_entrp">    -72.74325247 </i>
    <i name="e_0_energy">    -72.74325247 </i>
   </energy>
  </scstep>
  <scstep>
   <time name="dav">    0.17    0.17</time>
   <time name="total">    0.24    0.24</time>
   <energy>
    <i name="e_fr_energy">    -72.74297053 </i>
    <i name="e_wo_entrp">    -72.74297053 </i>
    <i name="e_0_energy">    -72.74297053 </i>
   </energy>
  </scstep>
  <scstep>
   <time name="dav">    0.16    0.16</time>
   <time name="total">    0.24    0.24</time>
   <energy>
    <i name="e_fr_energy">    -72.74284222 </i>
    <i name="e_wo_entrp">    -72.74284222 </i>
    <i name="e_0_energy">    -72.74284222 </i>
   </energy>
  </scstep>
  <scstep>
   <time name="dav">    0.14    0.14</time>
   <time name="total">    0.20    0.20</time>
   <energy>
    <i name="alphaZ">    115.88757951 </i>
    <i name="ewald">  -1391.94582363 </i>
    <i name="hartreedc">   -105.60759488 </i>
    <i name="XCdc">    112.83945300 </i>
    <i name="pawpsdc">   3074.11316165 </i>
    <i name="pawaedc">  -3079.47722473 </i>
    <i name="eentropy">     -0.00000000 </i>
    <i name="bandstr">     24.26023399 </i>
    <i name="atom">   1177.18737338 </i>
    <i name="e_fr_energy">    -72.74284170 </i>
    <i name="e_wo_entrp">    -72.74284170 </i>
    <i name="e_0_energy">    -72.74284170 </i>
   </energy>
  </scstep>
  <structure>
   <crystal>
    <varray name="basis" >
     <v>       3.56651808       0.00000000       0.00000000 </v>
     <v>       0.00000000       3.56651808      -0.00000000 </v>
     <v>      -0.00000000       0.00000000       3.56651808 </v>
    </varray>
    <i name="volume">     45.36629246 </i>
    <varray name="rec_basis" >
     <v>       0.28038551      -0.00000000       0.00000000 </v>
     <v>      -0.00000000       0.28038551      -0.00000000 </v>
     <v>      -0.00000000       0.00000000       0.28038551 </v>
    </varray>
   </crystal>
   <varray name="positions" >
    <v>       0.12500000       0.12500000       0.62500000 </v>
    <v>       0.37500000       0.37500000       0.87500000 </v>
    <v>       0.12500000       0.62500000       0.12500000 </v>
    <v>       0.37500000       0.87500000       0.37500000 </v>
    <v>       0.62500000       0.12500000       0.12500000 </v>
    <v>       0.87500000       0.37500000       0.37500000 </v>
    <v>       0.62500000       0.62500000       0.62500000 </v>
    <v>       0.87500000       0.87500000       0.87500000 </v>
   </varray>
  </structure>
  <varray name="forces" >
   <v>       0.00000000       0.00000000      -0.00000000 </v>
   <v>       0.00000000      -0.00000000      -0.00000000 </v>
   <v>      -0.00000000       0.00000000       0.00000000 </v>
   <v>       0.00000000       0.00000000       0.00000000 </v>
   <v>      -0.00000000      -0.00000000      -0.00000000 </v>
   <v>      -0.00000000      -0.00000000      -0.00000000 </v>
   <v>      -0.00000000       0.00000000      -0.00000000 </v>
   <v>       0.00000000      -0.00000000       0.00000000 </v>
  </varray>
  <varray name="stress" >
   <v>      25.88174980       0.00000000      -0.00000000 </v>
   <v>      -0.00000000      25.88174980      -0.00000000 </v>
   <v>       0.00000000       0.00000000      25.88174980 </v>
  </varray>
  <energy>
   <i name="e_fr_energy">    -72.74281339 </i>
   <i name="e_wo_entrp">    -72.74281339 </i>
   <i name="e_0_energy">    -72.74281339 </i>
  </energy>
  <time name="totalsc">    1.20    1.20</time>
 </calculation>
 <calculation>
  <scstep>
   <time name="dav">    0.15    0.15</time>
   <time name="total">    0.22    0.22</time>
   <energy>
    <i name="alphaZ">    115.21573258 </i>
    <i name="ewald">  -1389.25071868 </i>
    <i name="hartreedc">   -105.40180432 </i>
    <i name="XCdc">    112.63114565 </i>
    <i name="pawpsdc">   3075.10465598 </i>
    <i name="pawaedc">  -3080.46656097 </i>
    <i name="eentropy">     -0.00000000 </i>
    <i name="bandstr">     22.23458056 </i>
    <i name="atom">   1177.18737338 </i>
    <i name="e_fr_energy">    -72.74559581 </i>
    <i name="e_wo_entrp">    -72.74559581 </i>
    <i name="e_0_energy">    -72.74559581 </i>
   </energy>
  </scstep>
  <scstep>
   <time name="dav">    0.16    0.16</time>
   <time name="total">    0.23    0.23</time>
   <energy>
    <i name="e_fr_energy">    -72.74519092 </i>
    <i name="e_wo_entrp">    -72.74519092 </i>
    <i name="e_0_energy">    -72.74519092 </i>
   </energy>
  </scstep>
  <scstep>
   <time name="dav">    0.15    0.15</time>
   <time name="total">    0.23    0.23</time>
   <energy>
    <i name="e_fr_energy">    -72.74500765 </i>
    <i name="e_wo_entrp">    -72.74500765 </i>
    <i name="e_0_energy">    -72.74500765 </i>
   </energy>
  </scstep>
  <scstep>
   <time name="dav">    0.15    0.15</time>
   <time name="total">    0.21    0.21</time>
   <energy>
    <i name="alphaZ">    115.21573258 </i>
    <i name="ewald">  -1389.25071868 </i>
    <i name="hartreedc">   -105.93628273 </i>
    <i name="XCdc">    112.67602506 </i>
    <i name="pawpsdc">   3046.31059683 </i>
    <i name="pawaedc">  -3051.66349569 </i>
    <i name="eentropy">     -0.00000000 </i>
    <i name="bandstr">     22.71576226 </i>
    <i name="atom">   1177.18737338 </i>
    <i name="e_fr_energy">    -72.74500699 </i>
    <i name="e_wo_entrp">    -72.74500699 </i>
    <i name="e_0_energy">    -72.74500699 </i>
   </energy>
  </scstep>
  <structure>
   <crystal>
    <varray name="basis" >
     <v>       3.57343701       0.00000000       0.00000000 </v>
     <v>       0.00000000       3.57343701      -0.00000000 </v>
     <v>      -0.00000000       0.00000000       3.57343701 </v>
    </varray>
    <i name="volume">     45.63083275 </i>
    <varray name="rec_basis" >
     <v>       0.27984263      -0.00000000       0.00000000 </v>
     <v>      -0.00000000       0.27984263      -0.00000000 </v>
     <v>      -0.00000000       0.00000000       0.27984263 </v>
    </varray>
   </crystal>
   <varray name="positions" >
    <v>       0.12500000       0.12500000       0.62500000 </v>
    <v>       0.37500000       0.37500000       0.87500000 </v>
    <v>       0.12500000       0.62500000       0.12500000 </v>
    <v>       0.37500000       0.87500000       0.37500000 </v>
    <v>       0.62500000       0.12500000       0.12500000 </v>
    <v>       0.87500000       0.37500000       0.37500000 </v>
    <v>       0.62500000       0.62500000       0.62500000 </v>
    <v>       0.87500000       0.87500000       0.87500000 </v>
   </varray>
  </structure>
  <varray name="forces" >
   <v>      -0.00000000      -0.00000000      -0.00000000 </v>
   <v>       0.00000000      -0.00000000       0.00000000 </v>
   <v>      -0.00000000       0.00000000      -0.00000000 </v>
   <v>       0.00000000       0.00000000       0.00000000 </v>
   <v>      -0.00000000      -0.00000000      -0.00000000 </v>
   <v>      -0.00000000       0.00000000       0.00000000 </v>
   <v>      -0.00000000      -0.00000000      -0.00000000 </v>
   <v>       0.00000000       0.00000000       0.00000000 </v>
  </varray>
  <varray name="stress" >
   <v>       0.33523059       0.00000000       0.00000000 </v>
   <v>      -0.00000000       0.33523059      -0.00000000 </v>
   <v>      -0.00000000      -0.00000000       0.33523059 </v>
  </varray>
  <energy>
   <i name="e_fr_energy">    -72.74497851 </i>
   <i name="e_wo_entrp">    -72.74497851 </i>
   <i name="e_0_energy">    -72.74497851 </i>
  </energy>
  <time name="totalsc">    1.18    1.18</time>
 </calculation>
 <calculation>
  <scstep>
   <time name="dav">    0.14    0.14</time>
   <time name="total">    0.22    0.22</time>
   <energy>
    <i name="alphaZ">    115.20692540 </i>
    <i name="ewald">  -1389.21531930 </i>
    <i name="hartreedc">   -105.93201106 </i>
    <i name="XCdc">    112.67303976 </i>
    <i name="pawpsdc">   3047.51159259 </i>
    <i name="pawaedc">  -3052.86189580 </i>
    <i name="eentropy">     -0.00000000 </i>
    <i name="bandstr">     22.68528887 </i>
    <i name="atom">   1177.18737338 </i>
    <i name="e_fr_energy">    -72.74500617 </i>
    <i name="e_wo_entrp">    -72.74500617 </i>
    <i name="e_0_energy">    -72.74500617 </i>
   </energy>
  </scstep>
  <scstep>
   <time name="dav">    0.11    0.11</time>
   <time name="total">    0.17    0.17</time>
   <energy>
    <i name="alphaZ">    115.20692540 </i>
    <i name="ewald">  -1389.21531930 </i>
    <i name="hartreedc">   -105.93538612 </i>
    <i name="XCdc">    112.67332075 </i>
    <i name="pawpsdc">   3047.30364227 </i>
    <i name="pawaedc">  -3052.65394958 </i>
    <i name="eentropy">     -0.00000000 </i>
    <i name="bandstr">     22.68838717 </i>
    <i name="atom">   1177.18737338 </i>
    <i name="e_fr_energy">    -72.74500603 </i>
    <i name="e_wo_entrp">    -72.74500603 </i>
    <i name="e_0_energy">    -72.74500603 </i>
   </energy>
  </scstep>
  <structure>
   <crystal>
    <varray name="basis" >
     <v>       3.57352807       0.00000000       0.00000000 </v>
     <v>       0.00000000       3.57352807      -0.00000000 </v>
     <v>      -0.00000000       0.00000000       3.57352807 </v>
    </varray>
    <i name="volume">     45.63432108 </i>
    <varray name="rec_basis" >
     <v>       0.27983550      -0.00000000       0.00000000 </v>
     <v>      -0.00000000       0.27983550      -0.00000000 </v>
     <v>      -0.00000000       0.00000000       0.27983550 </v>
    </varray>
   </crystal>
   <varray name="positions" >
    <v>       0.12500000       0.12500000       0.62500000 </v>
    <v>       0.37500000       0.37500000       0.87500000 </v>
    <v>       0.12500000       0.62500000       0.12500000 </v>
    <v>       0.37500000       0.87500000       0.37500000 </v>
    <v>       0.62500000       0.12500000       0.12500000 </v>
    <v>       0.87500000       0.37500000       0.37500000 </v>
    <v>       0.62500000       0.62500000       0.62500000 </v>
    <v>       0.87500000       0.87500000       0.87500000 </v>
   </varray>
  </structure>
  <varray name="forces" >
   <v>      -0.00000000      -0.00000000      -0.00000000 </v>
   <v>       0.00000000       0.00000000       0.00000000 </v>
   <v>       0.00000000      -0.00000000       0.00000000 </v>
   <v>      -0.00000000       0.00000000       0.00000000 </v>
   <v>      -0.00000000      -0.00000000      -0.00000000 </v>
   <v>       0.00000000       0.00000000       0.00000000 </v>
   <v>      -0.00000000      -0.00000000       0.00000000 </v>
   <v>      -0.00000000       0.00000000       0.00000000 </v>
  </varray>
  <varray name="stress" >
   <v>       0.18310204       0.00000000       0.00000000 </v>
   <v>      -0.00000000       0.18310204      -0.00000000 </v>
   <v>       0.00000000       0.00000000       0.18310204 </v>
  </varray>
  <energy>
   <i name="e_fr_energy">    -72.74497754 </i>
   <i name="e_wo_entrp">    -72.74497754 </i>
   <i name="e_0_energy">    -72.74497754 </i>
  </energy>
  <time name="totalsc">    0.65    0.65</time>
  <eigenvalues>
   <array>
    <dimension dim="1">band</dimension>
    <dimension dim="2">kpoint</dimension>
    <dimension dim="3">spin</dimension>
    <field>eigene</field>
    <field>occ</field>
    <set>
     <set comment="spin 1">
      <set comment="kpoint 1">
       <r>  -11.3224    1.0000 </r>
       <r>   -4.7654    1.0000 </r>
       <r>   -4.7654    1.0000 </r>
       <r>   -4.7654    1.0000 </r>
       <r>   -0.9918    1.0000 </r>
       <r>   -0.9918    1.0000 </r>
       <r>   -0.9918    1.0000 </r>
       <r>    2.3464    1.0000 </r>
       <r>    2.3464    1.0000 </r>
       <r>    2.3464    1.0000 </r>
       <r>    3.7589    1.0000 </r>
       <r>    3.7589    1.0000 </r>
       <r>    3.7589    1.0000 </r>
       <r>    7.2433    1.0000 </r>
       <r>    8.9995    1.0000 </r>
       <r>    8.9995    1.0000 </r>
       <r>   14.6081    0.0000 </r>
       <r>   14.6081    0.0000 </r>
       <r>   14.6081    0.0000 </r>
       <r>   16.0758    0.0000 </r>
       <r>   16.0758    0.0000 </r>
       <r>   16.4944    0.0000 </r>
      </set>
      <set comment="kpoint 2">
       <r>  -10.1837    1.0000 </r>
       <r>   -7.9532    1.0000 </r>
       <r>   -4.0324    1.0000 </r>
       <r>   -4.0324    1.0000 </r>
       <r>   -1.4824    1.0000 </r>
       <r>   -1.4824    1.0000 </r>
       <r>    1.2796    1.0000 </r>
       <r>    1.2796    1.0000 </r>
       <r>    2.1556    1.0000 </r>
       <r>    3.3358    1.0000 </r>
       <r>    3.3358    1.0000 </r>
       <r>    4.4497    1.0000 </r>
       <r>    4.5805    1.0000 </r>
       <r>    4.8233    1.0000 </r>
       <r>    6.7894    1.0000 </r>
       <r>    7.6236    1.0000 </r>
       <r>   14.8042    0.0000 </r>
       <r>   15.4663    0.0000 </r>
       <r>   17.1554    0.0000 </r>
       <r>   17.1554    0.0000 </r>
       <r>   18.9429    0.0000 </r>
       <r>   18.9824    0.0000 </r>
      </set>
      <set comment="kpoint 3">
       <r>   -9.0663    1.0000 </r>
       <r>   -6.9070    1.0000 </r>
       <r>   -6.9070    1.0000 </r>
       <r>   -5.0653    1.0000 </r>
       <r>   -1.8910    1.0000 </r>
       <r>   -0.1595    1.0000 </r>
       <r>   -0.1595    1.0000 </r>
       <r>    1.9148    1.0000 </r>
       <r>    1.9403    1.0000 </r>
       <r>    3.3976    1.0000 </r>
       <r>    3.3976    1.0000 </r>
       <r>    5.3040    1.0000 </r>
       <r>    5.4680    1.0000 </r>
       <r>    5.5887    1.0000 </r>
       <r>    5.5887    1.0000 </r>
       <r>    7.8186    1.0000 </r>
       <r>   16.4746    0.0000 </r>
       <r>   17.5895    0.0000 </r>
       <r>   17.5895    0.0000 </r>
       <r>   17.7422    0.0000 </r>
       <r>   18.2516    0.0000 </r>
       <r>   19.2311    0.0000 </r>
      </set>
      <set comment="kpoint 4">
       <r>   -7.9877    1.0000 </r>
       <r>   -6.0619    1.0000 </r>
       <r>   -6.0619    1.0000 </r>
       <r>   -6.0619    1.0000 </r>
       <r>   -2.8494    1.0000 </r>
       <r>   -2.8494    1.0000 </r>
       <r>   -2.8494    1.0000 </r>
       <r>   -0.9807    1.0000 </r>
       <r>    5.5162    1.0000 </r>
       <r>    5.5162    1.0000 </r>
       <r>    5.5162    1.0000 </r>
       <r>    6.1431    1.0000 </r>
       <r>    6.1431    1.0000 </r>
       <r>    6.1431    1.0000 </r>
       <r>    7.1336    1.0000 </r>
       <r>    7.1336    1.0000 </r>
       <r>   17.2394    0.0000 </r>
       <r>   17.2394    0.0000 </r>
       <r>   17.2394    0.0000 </r>
       <r>   18.0083    0.0000 </r>
       <r>   18.0083    0.0000 </r>
       <r>   18.2744    0.0000 </r>
      </set>
     </set>
    </set>
   </array>
  </eigenvalues>
  <separator name="orbital magnetization" >
   <v name="MAGDIPOLOUT">      0.00000000      0.00000000      0.00000000</v>
  </separator>
  <dos>
   <i name="efermi">      9.45081140 </i>
   <total>
    <array>
     <dimension dim="1">gridpoints</dimension>
     <dimension dim="2">spin</dimension>
     <field>energy</field>
     <field>total</field>
     <field>integrated</field>
     <set>
      <set comment="spin 1">
       <r>   -12.8501     0.0000     0.0000 </r>
       <r>   -12.7381     0.0000     0.0000 </r>
       <r>   -12.6260     0.0000     0.0000 </r>
       <r>   -12.5140     0.0000     0.0000 </r>
       <r>   -12.4020     0.0000     0.0000 </r>
       <r>   -12.2900     0.0000     0.0000 </r>
       <r>   -12.1779     0.0000     0.0000 </r>
       <r>   -12.0659     0.0000     0.0000 </r>
       <r>   -11.9539     0.0000     0.0000 </r>
       <r>   -11.8418     0.0000     0.0000 </r>
       <r>   -11.7298     0.0000     0.0000 </r>
       <r>   -11.6178     0.0000     0.0000 </r>
       <r>   -11.5058     0.0106     0.0012 </r>
       <r>   -11.3937     0.3390     0.0392 </r>
       <r>   -11.2817     1.2520     0.1794 </r>
       <r>   -11.1697     0.5956     0.2462 </r>
       <r>   -11.0576     0.0341     0.2500 </r>
       <r>   -10.9456     0.0002     0.2500 </r>
       <r>   -10.8336     0.0000     0.2500 </r>
       <r>   -10.7215     0.0000     0.2500 </r>
       <r>   -10.6095     0.0000     0.2500 </r>
       <r>   -10.4975     0.0000     0.2500 </r>
       <r>   -10.3855     0.0145     0.2516 </r>
       <r>   -10.2734     0.6699     0.3267 </r>
       <r>   -10.1614     3.4915     0.7178 </r>
       <r>   -10.0494     2.3265     0.9784 </r>
       <r>    -9.9373     0.1907     0.9998 </r>
       <r>    -9.8253     0.0017     1.0000 </r>
       <r>    -9.7133     0.0000     1.0000 </r>
       <r>    -9.6012     0.0000     1.0000 </r>
       <r>    -9.4892     0.0000     1.0000 </r>
       <r>    -9.3772     0.0000     1.0000 </r>
       <r>    -9.2652     0.0164     1.0018 </r>
       <r>    -9.1531     0.7175     1.0822 </r>
       <r>    -9.0411     3.5441     1.4793 </r>
       <r>    -8.9291     2.2413     1.7304 </r>
       <r>    -8.8170     0.1738     1.7498 </r>
       <r>    -8.7050     0.0014     1.7500 </r>
       <r>    -8.5930     0.0000     1.7500 </r>
       <r>    -8.4809     0.0000     1.7500 </r>
       <r>    -8.3689     0.0000     1.7500 </r>
       <r>    -8.2569     0.0002     1.7500 </r>
       <r>    -8.1449     0.0515     1.7558 </r>
       <r>    -8.0328     1.4020     1.9129 </r>
       <r>    -7.9208     4.9225     2.4643 </r>
       <r>    -7.8088     2.3996     2.7332 </r>
       <r>    -7.6967     0.1494     2.7499 </r>
       <r>    -7.5847     0.0010     2.7500 </r>
       <r>    -7.4727     0.0000     2.7500 </r>
       <r>    -7.3607     0.0000     2.7500 </r>
       <r>    -7.2486     0.0000     2.7500 </r>
       <r>    -7.1366     0.0078     2.7509 </r>
       <r>    -7.0246     0.6368     2.8222 </r>
       <r>    -6.9125     5.6296     3.4529 </r>
       <r>    -6.8005     6.2302     4.1509 </r>
       <r>    -6.6885     0.8715     4.2485 </r>
       <r>    -6.5764     0.0134     4.2500 </r>
       <r>    -6.4644     0.0000     4.2500 </r>
       <r>    -6.3524     0.0001     4.2500 </r>
       <r>    -6.2404     0.0387     4.2544 </r>
       <r>    -6.1283     1.1242     4.3803 </r>
       <r>    -6.0163     3.7942     4.8054 </r>
       <r>    -5.9043     1.6511     4.9903 </r>
       <r>    -5.7922     0.0859     4.9999 </r>
       <r>    -5.6802     0.0005     5.0000 </r>
       <r>    -5.5682     0.0000     5.0000 </r>
       <r>    -5.4561     0.0000     5.0000 </r>
       <r>    -5.3441     0.0003     5.0000 </r>
       <r>    -5.2321     0.0611     5.0069 </r>
       <r>    -5.1201     1.4075     5.1646 </r>
       <r>    -5.0080     3.8291     5.5935 </r>
       <r>    -4.8960     1.5580     5.7681 </r>
       <r>    -4.7840     2.4937     6.0474 </r>
       <r>    -4.6719     3.4168     6.4302 </r>
       <r>    -4.5599     0.6107     6.4986 </r>
       <r>    -4.4479     0.0122     6.5000 </r>
       <r>    -4.3358     0.0001     6.5000 </r>
       <r>    -4.2238     0.0453     6.5051 </r>
       <r>    -4.1118     1.7060     6.6962 </r>
       <r>    -3.9998     7.3249     7.5168 </r>
       <r>    -3.8877     4.0402     7.9694 </r>
       <r>    -3.7757     0.2709     7.9998 </r>
       <r>    -3.6637     0.0019     8.0000 </r>
       <r>    -3.5516     0.0000     8.0000 </r>
       <r>    -3.4396     0.0000     8.0000 </r>
       <r>    -3.3276     0.0000     8.0000 </r>
       <r>    -3.2156     0.0000     8.0000 </r>
       <r>    -3.1035     0.0011     8.0001 </r>
       <r>    -2.9915     0.1479     8.0167 </r>
       <r>    -2.8795     2.0969     8.2516 </r>
       <r>    -2.7674     3.6244     8.6577 </r>
       <r>    -2.6554     0.8039     8.7477 </r>
       <r>    -2.5434     0.0203     8.7500 </r>
       <r>    -2.4313     0.0001     8.7500 </r>
       <r>    -2.3193     0.0000     8.7500 </r>
       <r>    -2.2073     0.0000     8.7500 </r>
       <r>    -2.0953     0.0129     8.7514 </r>
       <r>    -1.9832     0.6295     8.8220 </r>
       <r>    -1.8712     3.4416     9.2075 </r>
       <r>    -1.7592     2.4024     9.4767 </r>
       <r>    -1.6471     0.3387     9.5146 </r>
       <r>    -1.5351     2.9200     9.8418 </r>
       <r>    -1.4231     7.6486    10.6986 </r>
       <r>    -1.3110     2.5870    10.9884 </r>
       <r>    -1.1990     0.1163    11.0015 </r>
       <r>    -1.0870     0.7317    11.0834 </r>
       <r>    -0.9750     4.4206    11.5787 </r>
       <r>    -0.8629     3.4250    11.9624 </r>
       <r>    -0.7509     0.3323    11.9996 </r>
       <r>    -0.6389     0.0035    12.0000 </r>
       <r>    -0.5268     0.0000    12.0000 </r>
       <r>    -0.4148     0.0020    12.0002 </r>
       <r>    -0.3028     0.2845    12.0321 </r>
       <r>    -0.1907     4.1250    12.4942 </r>
       <r>    -0.0787     7.2838    13.3102 </r>
       <r>     0.0333     1.6513    13.4952 </r>
       <r>     0.1453     0.0426    13.5000 </r>
       <r>     0.2574     0.0001    13.5000 </r>
       <r>     0.3694     0.0000    13.5000 </r>
       <r>     0.4814     0.0000    13.5000 </r>
       <r>     0.5935     0.0000    13.5000 </r>
       <r>     0.7055     0.0000    13.5000 </r>
       <r>     0.8175     0.0000    13.5000 </r>
       <r>     0.9295     0.0000    13.5000 </r>
       <r>     1.0416     0.0051    13.5006 </r>
       <r>     1.1536     0.4961    13.5561 </r>
       <r>     1.2656     5.1481    14.1329 </r>
       <r>     1.3777     6.6332    14.8760 </r>
       <r>     1.4897     1.0870    14.9978 </r>
       <r>     1.6017     0.0198    15.0000 </r>
       <r>     1.7138     0.0195    15.0022 </r>
       <r>     1.8258     1.0295    15.1175 </r>
       <r>     1.9378     6.4126    15.8359 </r>
       <r>     2.0498     5.7844    16.4839 </r>
       <r>     2.1619     3.7495    16.9040 </r>
       <r>     2.2739     3.7953    17.3292 </r>
       <r>     2.3859     4.0571    17.7837 </r>
       <r>     2.4980     1.8235    17.9880 </r>
       <r>     2.6100     0.1066    17.9999 </r>
       <r>     2.7220     0.0006    18.0000 </r>
       <r>     2.8341     0.0000    18.0000 </r>
       <r>     2.9461     0.0000    18.0000 </r>
       <r>     3.0581     0.0006    18.0001 </r>
       <r>     3.1701     0.1363    18.0153 </r>
       <r>     3.2822     3.5515    18.4132 </r>
       <r>     3.3942    13.4042    19.9149 </r>
       <r>     3.5062     8.7478    20.8949 </r>
       <r>     3.6183     1.0822    21.0161 </r>
       <r>     3.7303     2.1524    21.2573 </r>
       <r>     3.8423     3.6018    21.6608 </r>
       <r>     3.9544     0.7774    21.7479 </r>
       <r>     4.0664     0.0190    21.7500 </r>
       <r>     4.1784     0.0005    21.7500 </r>
       <r>     4.2904     0.0811    21.7591 </r>
       <r>     4.4025     1.6458    21.9435 </r>
       <r>     4.5145     4.9391    22.4968 </r>
       <r>     4.6265     4.9769    23.0544 </r>
       <r>     4.7386     2.4332    23.3270 </r>
       <r>     4.8506     3.6649    23.7376 </r>
       <r>     4.9626     2.1792    23.9817 </r>
       <r>     5.0746     0.1661    24.0003 </r>
       <r>     5.1867     0.3230    24.0365 </r>
       <r>     5.2987     2.8869    24.3599 </r>
       <r>     5.4107     4.9782    24.9176 </r>
       <r>     5.5228     9.6730    26.0013 </r>
       <r>     5.6348    11.7940    27.3225 </r>
       <r>     5.7468     3.6423    27.7306 </r>
       <r>     5.8589     0.1726    27.7499 </r>
       <r>     5.9709     0.0505    27.7556 </r>
       <r>     6.0829     1.2712    27.8980 </r>
       <r>     6.1949     3.8222    28.3262 </r>
       <r>     6.3070     1.4829    28.4923 </r>
       <r>     6.4190     0.0682    28.5000 </r>
       <r>     6.5310     0.0012    28.5001 </r>
       <r>     6.6431     0.1282    28.5145 </r>
       <r>     6.7551     1.9731    28.7355 </r>
       <r>     6.8671     3.6843    29.1483 </r>
       <r>     6.9792     0.9486    29.2545 </r>
       <r>     7.0912     1.2186    29.3911 </r>
       <r>     7.2032     3.1158    29.7401 </r>
       <r>     7.3152     1.9523    29.9588 </r>
       <r>     7.4273     0.3754    30.0009 </r>
       <r>     7.5393     0.7726    30.0875 </r>
       <r>     7.6513     3.6478    30.4961 </r>
       <r>     7.7634     3.5609    30.8950 </r>
       <r>     7.8754     3.9872    31.3417 </r>
       <r>     7.9874     1.3560    31.4936 </r>
       <r>     8.0995     0.0565    31.5000 </r>
       <r>     8.2115     0.0002    31.5000 </r>
       <r>     8.3235     0.0000    31.5000 </r>
       <r>     8.4355     0.0000    31.5000 </r>
       <r>     8.5476     0.0000    31.5000 </r>
       <r>     8.6596     0.0000    31.5000 </r>
       <r>     8.7716     0.0028    31.5003 </r>
       <r>     8.8837     0.2231    31.5253 </r>
       <r>     8.9957     1.9085    31.7391 </r>
       <r>     9.1077     2.0473    31.9685 </r>
       <r>     9.2198     0.2772    31.9995 </r>
       <r>     9.3318     0.0041    32.0000 </r>
       <r>     9.4438     0.0000    32.0000 </r>
       <r>     9.5558     0.0000    32.0000 </r>
       <r>     9.6679     0.0000    32.0000 </r>
       <r>     9.7799     0.0000    32.0000 </r>
       <r>     9.8919     0.0000    32.0000 </r>
       <r>    10.0040     0.0000    32.0000 </r>
       <r>    10.1160     0.0000    32.0000 </r>
       <r>    10.2280     0.0000    32.0000 </r>
       <r>    10.3400     0.0000    32.0000 </r>
       <r>    10.4521     0.0000    32.0000 </r>
       <r>    10.5641     0.0000    32.0000 </r>
       <r>    10.6761     0.0000    32.0000 </r>
       <r>    10.7882     0.0000    32.0000 </r>
       <r>    10.9002     0.0000    32.0000 </r>
       <r>    11.0122     0.0000    32.0000 </r>
       <r>    11.1243     0.0000    32.0000 </r>
       <r>    11.2363     0.0000    32.0000 </r>
       <r>    11.3483     0.0000    32.0000 </r>
       <r>    11.4603     0.0000    32.0000 </r>
       <r>    11.5724     0.0000    32.0000 </r>
       <r>    11.6844     0.0000    32.0000 </r>
       <r>    11.7964     0.0000    32.0000 </r>
       <r>    11.9085     0.0000    32.0000 </r>
       <r>    12.0205     0.0000    32.0000 </r>
       <r>    12.1325     0.0000    32.0000 </r>
       <r>    12.2446     0.0000    32.0000 </r>
       <r>    12.3566     0.0000    32.0000 </r>
       <r>    12.4686     0.0000    32.0000 </r>
       <r>    12.5806     0.0000    32.0000 </r>
       <r>    12.6927     0.0000    32.0000 </r>
       <r>    12.8047     0.0000    32.0000 </r>
       <r>    12.9167     0.0000    32.0000 </r>
       <r>    13.0288     0.0000    32.0000 </r>
       <r>    13.1408     0.0000    32.0000 </r>
       <r>    13.2528     0.0000    32.0000 </r>
       <r>    13.3649     0.0000    32.0000 </r>
       <r>    13.4769     0.0000    32.0000 </r>
       <r>    13.5889     0.0000    32.0000 </r>
       <r>    13.7009     0.0000    32.0000 </r>
       <r>    13.8130     0.0000    32.0000 </r>
       <r>    13.9250     0.0000    32.0000 </r>
       <r>    14.0370     0.0000    32.0000 </r>
       <r>    14.1491     0.0000    32.0000 </r>
       <r>    14.2611     0.0000    32.0000 </r>
       <r>    14.3731     0.0030    32.0003 </r>
       <r>    14.4851     0.2715    32.0307 </r>
       <r>    14.5972     2.6722    32.3301 </r>
       <r>    14.7092     3.8360    32.7599 </r>
       <r>    14.8212     3.8883    33.1955 </r>
       <r>    14.9333     2.4908    33.4745 </r>
       <r>    15.0453     0.2252    33.4998 </r>
       <r>    15.1573     0.0022    33.5000 </r>
       <r>    15.2694     0.0178    33.5020 </r>
       <r>    15.3814     0.7509    33.5861 </r>
       <r>    15.4934     3.5774    33.9869 </r>
       <r>    15.6054     2.1840    34.2316 </r>
       <r>    15.7175     0.1632    34.2499 </r>
       <r>    15.8295     0.0024    34.2501 </r>
       <r>    15.9415     0.1274    34.2644 </r>
       <r>    16.0536     1.5522    34.4383 </r>
       <r>    16.1656     2.3269    34.6990 </r>
       <r>    16.2776     0.4662    34.7512 </r>
       <r>    16.3897     0.9130    34.8535 </r>
       <r>    16.5017     4.6304    35.3722 </r>
       <r>    16.6137     3.1056    35.7201 </r>
       <r>    16.7257     0.2640    35.7497 </r>
       <r>    16.8378     0.0025    35.7500 </r>
       <r>    16.9498     0.0244    35.7527 </r>
       <r>    17.0618     1.2583    35.8937 </r>
       <r>    17.1739     7.9730    36.7869 </r>
       <r>    17.2859     8.6822    37.7596 </r>
       <r>    17.3979     2.1034    37.9952 </r>
       <r>    17.5100     1.7905    38.1958 </r>
       <r>    17.6220     7.6152    39.0490 </r>
       <r>    17.7340     6.7890    39.8095 </r>
       <r>    17.8460     3.5026    40.2019 </r>
       <r>    17.9581     1.4869    40.3685 </r>
       <r>    18.0701     2.5911    40.6588 </r>
       <r>    18.1821     2.0893    40.8928 </r>
       <r>    18.2942     4.9509    41.4475 </r>
       <r>    18.4062     2.5345    41.7314 </r>
       <r>    18.5182     0.1645    41.7499 </r>
       <r>    18.6302     0.0012    41.7500 </r>
       <r>    18.7423     0.0175    41.7520 </r>
       <r>    18.8543     0.9198    41.8550 </r>
       <r>    18.9663     6.0232    42.5298 </r>
       <r>    19.0784     5.7608    43.1752 </r>
       <r>    19.1904     2.5452    43.4603 </r>
       <r>    19.3024     3.7686    43.8825 </r>
       <r>    19.4145     1.0170    43.9964 </r>
       <r>    19.5265     0.0318    44.0000 </r>
       <r>    19.6385     0.0001    44.0000 </r>
       <r>    19.7505     0.0000    44.0000 </r>
       <r>    19.8626     0.0000    44.0000 </r>
       <r>    19.9746     0.0000    44.0000 </r>
       <r>    20.0866     0.0000    44.0000 </r>
       <r>    20.1987     0.0000    44.0000 </r>
       <r>    20.3107     0.0000    44.0000 </r>
       <r>    20.4227     0.0000    44.0000 </r>
       <r>    20.5348     0.0000    44.0000 </r>
       <r>    20.6468     0.0000    44.0000 </r>
       <r>    20.7588     0.0000    44.0000 </r>
      </set>
     </set>
    </array>
   </total>
  </dos>
 </calculation>
 <structure name="finalpos" >
  <crystal>
   <varray name="basis" >
    <v>       3.57352807       0.00000000       0.00000000 </v>
    <v>       0.00000000       3.57352807      -0.00000000 </v>
    <v>      -0.00000000       0.00000000       3.57352807 </v>
   </varray>
   <i name="volume">     45.63432108 </i>
   <varray name="rec_basis" >
    <v>       0.27983550      -0.00000000       0.00000000 </v>
    <v>      -0.00000000       0.27983550      -0.00000000 </v>
    <v>      -0.00000000       0.00000000       0.27983550 </v>
   </varray>
  </crystal>
  <varray name="positions" >
   <v>       0.12500000       0.12500000       0.62500000 </v>
   <v>       0.37500000       0.37500000       0.87500000 </v>
   <v>       0.12500000       0.62500000       0.12500000 </v>
   <v>       0.37500000       0.87500000       0.37500000 </v>
   <v>       0.62500000       0.12500000       0.12500000 </v>
   <v>       0.87500000       0.37500000       0.37500000 </v>
   <v>       0.62500000       0.62500000       0.62500000 </v>
   <v>       0.87500000       0.87500000       0.87500000 </v>
  </varray>
 </structure>
</modeling>
