       N       E                     dE             d eps       ncg     rms          rms(c)
DAV:   1     0.134634336405E+03    0.13463E+03   -0.71803E+03   224   0.111E+03
DAV:   2    -0.927295861065E+01   -0.14391E+03   -0.13606E+03   360   0.212E+02
DAV:   3    -0.221093919113E+02   -0.12836E+02   -0.12631E+02   290   0.716E+01
DAV:   4    -0.224023354358E+02   -0.29294E+00   -0.29123E+00   284   0.128E+01
DAV:   5    -0.224112730334E+02   -0.89376E-02   -0.89307E-02   314   0.213E+00    0.257E+01
DAV:   6    -0.213596668111E+02    0.10516E+01   -0.52668E+00   280   0.177E+01    0.941E+00
DAV:   7    -0.212624940177E+02    0.97173E-01   -0.42063E+00   278   0.169E+01    0.793E+00
DAV:   8    -0.209222674530E+02    0.34023E+00   -0.63083E-01   284   0.697E+00    0.164E+00
