   8   8   0   0
  0.5959285E+01  0.3626002E-09  0.3626002E-09  0.3626002E-09  0.1000000E-15
  1.000000000000000E-004
  CAR 
 unknown system                          
     20.18658103    -14.01365694  301      7.42205471      1.00000000
    -14.014  0.0000E+00  0.0000E+00
    -13.900  0.0000E+00  0.0000E+00
    -13.786  0.0000E+00  0.0000E+00
    -13.672  0.0000E+00  0.0000E+00
    -13.558  0.0000E+00  0.0000E+00
    -13.444  0.0000E+00  0.0000E+00
    -13.330  0.0000E+00  0.0000E+00
    -13.216  0.0000E+00  0.0000E+00
    -13.102  0.0000E+00  0.0000E+00
    -12.988  0.2824E-15  0.3220E-16
    -12.874  0.1665E-10  0.1899E-11
    -12.760  0.7798E-07  0.8892E-08
    -12.646  0.3039E-04  0.3473E-05
    -12.532  0.1084E-02  0.1270E-03
    -12.418  0.4157E-02  0.6010E-03
    -12.304  0.1936E-02  0.8217E-03
    -12.190  0.1015E-03  0.8333E-03
    -12.076  0.5063E-06  0.8333E-03
    -11.962  0.2144E-09  0.8333E-03
    -11.848  0.2376E-08  0.8333E-03
    -11.734  0.3879E-05  0.8338E-03
    -11.620  0.5443E-03  0.8958E-03
    -11.506  0.7434E-02  0.1743E-02
    -11.392  0.1169E-01  0.3076E-02
    -11.278  0.2216E-02  0.3328E-02
    -11.164  0.4399E-04  0.3333E-02
    -11.050  0.7851E-07  0.3333E-02
    -10.936  0.1279E-08  0.3333E-02
    -10.822  0.2476E-05  0.3334E-02
    -10.708  0.4132E-03  0.3381E-02
    -10.594  0.6634E-02  0.4137E-02
    -10.480  0.1213E-01  0.5520E-02
    -10.366  0.2686E-02  0.5826E-02
    -10.252  0.6309E-04  0.5833E-02
    -10.138  0.1346E-06  0.5833E-02
    -10.024  0.6250E-06  0.5833E-02
     -9.910  0.1227E-03  0.5847E-02
     -9.796  0.2862E-02  0.6174E-02
     -9.682  0.1280E-01  0.7632E-02
     -9.568  0.1180E-01  0.8978E-02
     -9.454  0.1632E-02  0.9164E-02
     -9.340  0.2458E-04  0.9167E-02
     -9.226  0.9346E-06  0.9167E-02
     -9.112  0.2801E-03  0.9199E-02
     -8.998  0.8067E-02  0.1012E-01
     -8.884  0.2538E-01  0.1301E-01
     -8.770  0.9757E-02  0.1412E-01
     -8.656  0.2477E-02  0.1441E-01
     -8.542  0.1151E-01  0.1572E-01
     -8.428  0.7719E-02  0.1660E-01
     -8.314  0.5982E-03  0.1667E-01
     -8.200  0.4913E-05  0.1667E-01
     -8.086  0.1258E-03  0.1668E-01
     -7.972  0.3825E-02  0.1712E-01
     -7.858  0.1269E-01  0.1856E-01
     -7.744  0.7100E-02  0.1937E-01
     -7.630  0.1167E-01  0.2070E-01
     -7.516  0.9271E-02  0.2176E-01
     -7.402  0.1719E-01  0.2372E-01
     -7.288  0.2222E-01  0.2625E-01
     -7.174  0.3570E-02  0.2666E-01
     -7.060  0.5931E-04  0.2667E-01
     -6.946  0.8776E-07  0.2667E-01
     -6.832  0.1066E-10  0.2667E-01
     -6.718  0.1023E-15  0.2667E-01
     -6.604  0.0000E+00  0.2667E-01
     -6.490  0.0000E+00  0.2667E-01
     -6.376  0.0000E+00  0.2667E-01
     -6.262  0.0000E+00  0.2667E-01
     -6.148  0.0000E+00  0.2667E-01
     -6.034  0.0000E+00  0.2667E-01
     -5.920  0.0000E+00  0.2667E-01
     -5.806  0.0000E+00  0.2667E-01
     -5.692  0.0000E+00  0.2667E-01
     -5.578  0.0000E+00  0.2667E-01
     -5.464  0.0000E+00  0.2667E-01
     -5.350  0.0000E+00  0.2667E-01
     -5.236  0.0000E+00  0.2667E-01
     -5.122  0.0000E+00  0.2667E-01
     -5.008  0.0000E+00  0.2667E-01
     -4.894  0.0000E+00  0.2667E-01
     -4.780  0.0000E+00  0.2667E-01
     -4.666  0.0000E+00  0.2667E-01
     -4.552  0.0000E+00  0.2667E-01
     -4.438  0.0000E+00  0.2667E-01
     -4.324  0.0000E+00  0.2667E-01
     -4.210  0.0000E+00  0.2667E-01
     -4.096  0.0000E+00  0.2667E-01
     -3.982  0.0000E+00  0.2667E-01
     -3.868  0.0000E+00  0.2667E-01
     -3.754  0.0000E+00  0.2667E-01
     -3.640  0.0000E+00  0.2667E-01
     -3.526  0.0000E+00  0.2667E-01
     -3.412  0.0000E+00  0.2667E-01
     -3.298  0.3348E-15  0.2667E-01
     -3.184  0.2387E-10  0.2667E-01
     -3.070  0.1351E-06  0.2667E-01
     -2.956  0.6333E-04  0.2667E-01
     -2.842  0.2691E-02  0.2698E-01
     -2.728  0.1214E-01  0.2836E-01
     -2.614  0.6625E-02  0.2912E-01
     -2.500  0.4119E-03  0.2917E-01
     -2.386  0.2464E-05  0.2917E-01
     -2.272  0.1261E-08  0.2917E-01
     -2.158  0.1951E-07  0.2917E-01
     -2.044  0.1700E-04  0.2917E-01
     -1.930  0.1305E-02  0.2932E-01
     -1.816  0.1017E-01  0.3048E-01
     -1.702  0.9640E-02  0.3158E-01
     -1.588  0.3759E-02  0.3200E-01
     -1.474  0.3734E-02  0.3243E-01
     -1.360  0.6091E-03  0.3250E-01
     -1.246  0.2540E-03  0.3253E-01
     -1.132  0.7600E-02  0.3339E-01
     -1.018  0.2889E-01  0.3669E-01
     -0.904  0.3574E-01  0.4076E-01
     -0.790  0.3123E-01  0.4432E-01
     -0.676  0.5808E-02  0.4499E-01
     -0.562  0.1305E-03  0.4500E-01
     -0.448  0.2763E-06  0.4500E-01
     -0.334  0.4898E-10  0.4500E-01
     -0.220  0.6914E-15  0.4500E-01
     -0.106  0.0000E+00  0.4500E-01
      0.008  0.0000E+00  0.4500E-01
      0.122  0.0000E+00  0.4500E-01
      0.236  0.1210E-14  0.4500E-01
      0.350  0.8196E-10  0.4500E-01
      0.464  0.4431E-06  0.4500E-01
      0.578  0.2000E-03  0.4502E-01
      0.692  0.8258E-02  0.4596E-01
      0.806  0.3689E-01  0.5017E-01
      0.920  0.2632E-01  0.5317E-01
      1.034  0.1332E-01  0.5469E-01
      1.148  0.2700E-02  0.5500E-01
      1.262  0.2112E-02  0.5524E-01
      1.376  0.1150E-01  0.5655E-01
      1.490  0.8585E-02  0.5753E-01
      1.604  0.9376E-02  0.5860E-01
      1.718  0.1073E-01  0.5982E-01
      1.832  0.1565E-02  0.6000E-01
      1.946  0.2343E-04  0.6000E-01
      2.060  0.3136E-07  0.6000E-01
      2.174  0.9787E-06  0.6000E-01
      2.288  0.2963E-03  0.6003E-01
      2.402  0.8546E-02  0.6101E-01
      2.516  0.3327E-01  0.6480E-01
      2.630  0.3539E-01  0.6884E-01
      2.744  0.1780E-01  0.7086E-01
      2.858  0.1211E-01  0.7224E-01
      2.972  0.2867E-02  0.7257E-01
      3.086  0.8090E-02  0.7349E-01
      3.200  0.1129E-01  0.7478E-01
      3.314  0.2852E-02  0.7511E-01
      3.428  0.9210E-02  0.7616E-01
      3.542  0.1069E-01  0.7738E-01
      3.656  0.7318E-02  0.7821E-01
      3.770  0.1245E-01  0.7963E-01
      3.884  0.3171E-02  0.7999E-01
      3.998  0.3393E-03  0.8003E-01
      4.112  0.6053E-02  0.8072E-01
      4.226  0.2535E-01  0.8361E-01
      4.340  0.4071E-01  0.8825E-01
      4.454  0.3129E-01  0.9182E-01
      4.568  0.5866E-02  0.9249E-01
      4.682  0.1110E-02  0.9261E-01
      4.796  0.9235E-02  0.9366E-01
      4.910  0.1032E-01  0.9484E-01
      5.024  0.1373E-02  0.9500E-01
      5.138  0.9944E-04  0.9501E-01
      5.252  0.3093E-02  0.9536E-01
      5.366  0.1360E-01  0.9691E-01
      5.480  0.1118E-01  0.9819E-01
      5.594  0.8936E-02  0.9921E-01
      5.708  0.6585E-02  0.9996E-01
      5.822  0.6340E-02  0.1007E+00
      5.936  0.1264E-01  0.1021E+00
      6.050  0.7028E-02  0.1029E+00
      6.164  0.1272E-01  0.1044E+00
      6.278  0.5271E-02  0.1050E+00
      6.392  0.2457E-03  0.1050E+00
      6.506  0.1081E-05  0.1050E+00
      6.620  0.1490E-06  0.1050E+00
      6.734  0.5888E-04  0.1050E+00
      6.848  0.2133E-02  0.1052E+00
      6.962  0.8298E-02  0.1062E+00
      7.076  0.3920E-02  0.1066E+00
      7.190  0.2087E-03  0.1067E+00
      7.304  0.1058E-05  0.1067E+00
      7.418  0.4552E-09  0.1067E+00
      7.532  0.1572E-13  0.1067E+00
      7.646  0.0000E+00  0.1067E+00
      7.760  0.0000E+00  0.1067E+00
      7.874  0.0000E+00  0.1067E+00
      7.988  0.0000E+00  0.1067E+00
      8.102  0.0000E+00  0.1067E+00
      8.216  0.0000E+00  0.1067E+00
      8.330  0.0000E+00  0.1067E+00
      8.444  0.0000E+00  0.1067E+00
      8.559  0.0000E+00  0.1067E+00
      8.673  0.0000E+00  0.1067E+00
      8.787  0.0000E+00  0.1067E+00
      8.901  0.0000E+00  0.1067E+00
      9.015  0.0000E+00  0.1067E+00
      9.129  0.0000E+00  0.1067E+00
      9.243  0.0000E+00  0.1067E+00
      9.357  0.0000E+00  0.1067E+00
      9.471  0.0000E+00  0.1067E+00
      9.585  0.0000E+00  0.1067E+00
      9.699  0.0000E+00  0.1067E+00
      9.813  0.0000E+00  0.1067E+00
      9.927  0.0000E+00  0.1067E+00
     10.041  0.0000E+00  0.1067E+00
     10.155  0.0000E+00  0.1067E+00
     10.269  0.0000E+00  0.1067E+00
     10.383  0.0000E+00  0.1067E+00
     10.497  0.0000E+00  0.1067E+00
     10.611  0.0000E+00  0.1067E+00
     10.725  0.0000E+00  0.1067E+00
     10.839  0.0000E+00  0.1067E+00
     10.953  0.0000E+00  0.1067E+00
     11.067  0.0000E+00  0.1067E+00
     11.181  0.0000E+00  0.1067E+00
     11.295  0.0000E+00  0.1067E+00
     11.409  0.0000E+00  0.1067E+00
     11.523  0.0000E+00  0.1067E+00
     11.637  0.0000E+00  0.1067E+00
     11.751  0.0000E+00  0.1067E+00
     11.865  0.0000E+00  0.1067E+00
     11.979  0.0000E+00  0.1067E+00
     12.093  0.0000E+00  0.1067E+00
     12.207  0.0000E+00  0.1067E+00
     12.321  0.5600E-16  0.1067E+00
     12.435  0.5752E-11  0.1067E+00
     12.549  0.4646E-07  0.1067E+00
     12.663  0.3083E-04  0.1067E+00
     12.777  0.1824E-02  0.1069E+00
     12.891  0.1117E-01  0.1082E+00
     13.005  0.8202E-02  0.1091E+00
     13.119  0.7001E-03  0.1092E+00
     13.233  0.5881E-05  0.1092E+00
     13.347  0.4273E-08  0.1092E+00
     13.461  0.2512E-12  0.1092E+00
     13.575  0.1064E-14  0.1092E+00
     13.689  0.5981E-10  0.1092E+00
     13.803  0.2673E-06  0.1092E+00
     13.917  0.9952E-04  0.1092E+00
     14.031  0.3401E-02  0.1096E+00
     14.145  0.1253E-01  0.1110E+00
     14.259  0.5613E-02  0.1116E+00
     14.373  0.2821E-03  0.1117E+00
     14.487  0.1345E-05  0.1117E+00
     14.601  0.5436E-09  0.1117E+00
     14.715  0.1761E-13  0.1117E+00
     14.829  0.0000E+00  0.1117E+00
     14.943  0.0000E+00  0.1117E+00
     15.057  0.1597E-14  0.1117E+00
     15.171  0.1032E-09  0.1117E+00
     15.285  0.5304E-06  0.1117E+00
     15.399  0.2268E-03  0.1117E+00
     15.513  0.8877E-02  0.1127E+00
     15.627  0.3868E-01  0.1171E+00
     15.741  0.2977E-01  0.1205E+00
     15.855  0.9422E-02  0.1216E+00
     15.969  0.7393E-03  0.1217E+00
     16.083  0.6363E-05  0.1217E+00
     16.197  0.4948E-05  0.1217E+00
     16.311  0.4022E-03  0.1217E+00
     16.425  0.3361E-02  0.1221E+00
     16.539  0.7110E-02  0.1229E+00
     16.653  0.3070E-01  0.1264E+00
     16.767  0.3610E-01  0.1305E+00
     16.881  0.9528E-02  0.1316E+00
     16.995  0.5171E-03  0.1317E+00
     17.109  0.6536E-03  0.1317E+00
     17.223  0.3785E-02  0.1322E+00
     17.337  0.2647E-02  0.1325E+00
     17.451  0.2145E-03  0.1325E+00
     17.565  0.4049E-04  0.1325E+00
     17.679  0.2098E-02  0.1327E+00
     17.793  0.1348E-01  0.1343E+00
     17.907  0.2250E-01  0.1368E+00
     18.021  0.1745E-01  0.1388E+00
     18.135  0.7803E-02  0.1397E+00
     18.249  0.1320E-01  0.1412E+00
     18.363  0.1085E-01  0.1425E+00
     18.477  0.1254E-01  0.1439E+00
     18.591  0.8441E-02  0.1449E+00
     18.705  0.1253E-01  0.1463E+00
     18.819  0.3252E-02  0.1467E+00
     18.933  0.9116E-04  0.1467E+00
     19.047  0.2339E-06  0.1467E+00
     19.161  0.4996E-10  0.1467E+00
     19.275  0.8473E-15  0.1467E+00
     19.389  0.0000E+00  0.1467E+00
     19.503  0.0000E+00  0.1467E+00
     19.617  0.0000E+00  0.1467E+00
     19.731  0.0000E+00  0.1467E+00
     19.845  0.0000E+00  0.1467E+00
     19.959  0.0000E+00  0.1467E+00
     20.073  0.0000E+00  0.1467E+00
     20.187  0.0000E+00  0.1467E+00
