    8    8  300    1
  0.5959285E+01  0.3626002E-09  0.3626002E-09  0.3626002E-09  0.1000000E-15
  1.000000000000000E-004
  CAR 
 unknown system                          
     32      4     22
 
  0.1250000E+00  0.1250000E+00  0.1250000E+00  0.1250000E+00
    1      -12.459101   1.000000
    2       -7.650154   1.000000
    3       -7.650154   1.000000
    4       -7.650154   1.000000
    5       -0.938106   1.000000
    6       -0.938106   1.000000
    7       -0.938106   1.000000
    8        1.615360   1.000000
    9        1.615360   1.000000
   10        1.615360   1.000000
   11        2.768759   1.000000
   12        2.768759   1.000000
   13        2.768759   1.000000
   14        5.433400   1.000000
   15        6.921794   1.000000
   16        6.921794   1.000000
   17       12.873752   0.000000
   18       12.873752   0.000000
   19       12.873752   0.000000
   20       16.423130   0.000000
   21       16.643400   0.000000
   22       16.643400   0.000000
 
  0.3750000E+00  0.1250000E+00  0.1250000E+00  0.3750000E+00
    1      -11.481047   1.000000
    2       -9.669753   1.000000
    3       -7.385673   1.000000
    4       -7.385673   1.000000
    5       -1.066081   1.000000
    6       -1.066081   1.000000
    7        0.769677   1.000000
    8        0.769677   1.000000
    9        0.952713   1.000000
   10        2.463103   1.000000
   11        2.463103   1.000000
   12        3.104828   1.000000
   13        3.435153   1.000000
   14        3.696722   1.000000
   15        5.327919   1.000000
   16        5.865385   1.000000
   17       14.100968   0.000000
   18       15.586790   0.000000
   19       15.591043   0.000000
   20       15.591043   0.000000
   21       18.394455   0.000000
   22       18.632025   0.000000
 
  0.3750000E+00  0.3750000E+00  0.1250000E+00  0.3750000E+00
    1      -10.560847   1.000000
    2       -8.935630   1.000000
    3       -8.935630   1.000000
    4       -7.906934   1.000000
    5       -1.819792   1.000000
    6       -0.870412   1.000000
    7       -0.870412   1.000000
    8        0.778845   1.000000
    9        1.355017   1.000000
   10        2.579747   1.000000
   11        2.579747   1.000000
   12        4.159619   1.000000
   13        4.247594   1.000000
   14        4.375300   1.000000
   15        4.375300   1.000000
   16        6.117147   1.000000
   17       15.725250   0.000000
   18       16.645236   0.000000
   19       16.645236   0.000000
   20       17.770795   0.000000
   21       17.890629   0.000000
   22       18.187715   0.000000
 
  0.3750000E+00  0.3750000E+00  0.3750000E+00  0.1250000E+00
    1       -9.757704   1.000000
    2       -8.563318   1.000000
    3       -8.563318   1.000000
    4       -8.563318   1.000000
    5       -2.760450   1.000000
    6       -2.760450   1.000000
    7       -2.760450   1.000000
    8       -1.570768   1.000000
    9        4.286509   1.000000
   10        4.286509   1.000000
   11        4.286509   1.000000
   12        4.802533   1.000000
   13        4.802533   1.000000
   14        4.802533   1.000000
   15        5.589296   1.000000
   16        5.589296   1.000000
   17       16.738212   0.000000
   18       16.738212   0.000000
   19       16.738212   0.000000
   20       17.203118   0.000000
   21       17.951175   0.000000
   22       17.951175   0.000000
