unknown system                          
           1
     3.626002    0.000000    0.000000
     0.000000    3.626002    0.000000
     0.000000    0.000000    3.626002
   B    N 
     4     4
Direct configuration=     1
   0.12500000  0.12500000  0.12500000
   0.12500000  0.62500000  0.62500000
   0.62500000  0.12500000  0.62500000
   0.62500000  0.62500000  0.12500000
   0.37500000  0.37500000  0.87500000
   0.37500000  0.87500000  0.37500000
   0.87500000  0.37500000  0.37500000
   0.87500000  0.87500000  0.87500000
unknown system                          
           1
     3.625743    0.000000    0.000000
     0.000000    3.625743    0.000000
     0.000000   -0.000000    3.625743
   B    N 
     4     4
Direct configuration=     2
   0.12500000  0.12500000  0.12500000
   0.12500000  0.62500000  0.62500000
   0.62500000  0.12500000  0.62500000
   0.62500000  0.62500000  0.12500000
   0.37500000  0.37500000  0.87500000
   0.37500000  0.87500000  0.37500000
   0.87500000  0.37500000  0.37500000
   0.87500000  0.87500000  0.87500000
unknown system                          
           1
     3.625297    0.000000    0.000000
     0.000000    3.625297    0.000000
     0.000000   -0.000000    3.625297
   B    N 
     4     4
Direct configuration=     3
   0.12500000  0.12500000  0.12500000
   0.12500000  0.62500000  0.62500000
   0.62500000  0.12500000  0.62500000
   0.62500000  0.62500000  0.12500000
   0.37500000  0.37500000  0.87500000
   0.37500000  0.87500000  0.37500000
   0.87500000  0.37500000  0.37500000
   0.87500000  0.87500000  0.87500000
