   8   8   0   0
  0.5959285E+01  0.3807129E-09  0.3626002E-09  0.4162306E-09  0.5000000E-15
  1.000000000000000E-004
  CAR 
 unknown system                          
     18.14013831    -14.96499642  301     10.08009814      1.00000000
    -14.965  0.0000E+00  0.0000E+00
    -14.855  0.0000E+00  0.0000E+00
    -14.744  0.0000E+00  0.0000E+00
    -14.634  0.0000E+00  0.0000E+00
    -14.524  0.0000E+00  0.0000E+00
    -14.413  0.0000E+00  0.0000E+00
    -14.303  0.0000E+00  0.0000E+00
    -14.193  0.0000E+00  0.0000E+00
    -14.082  0.0000E+00  0.0000E+00
    -13.972  0.8759E-15  0.9666E-16
    -13.861  0.2620E-10  0.2891E-11
    -13.751  0.7330E-07  0.8091E-08
    -13.641  0.2005E-04  0.2221E-05
    -13.530  0.5853E-03  0.6680E-04
    -13.420  0.2094E-02  0.2978E-03
    -13.310  0.1015E-02  0.4098E-03
    -13.199  0.1605E-03  0.4275E-03
    -13.089  0.1231E-02  0.5634E-03
    -12.979  0.1998E-02  0.7839E-03
    -12.868  0.5035E-03  0.8394E-03
    -12.758  0.1469E-02  0.1002E-02
    -12.648  0.5421E-02  0.1600E-02
    -12.537  0.5592E-02  0.2217E-02
    -12.427  0.2346E-02  0.2476E-02
    -12.317  0.9404E-03  0.2579E-02
    -12.206  0.2264E-02  0.2829E-02
    -12.096  0.2521E-02  0.3107E-02
    -11.986  0.3850E-02  0.3532E-02
    -11.875  0.3407E-02  0.3908E-02
    -11.765  0.2093E-02  0.4139E-02
    -11.654  0.1479E-02  0.4302E-02
    -11.544  0.4132E-02  0.4758E-02
    -11.434  0.5985E-02  0.5419E-02
    -11.323  0.9424E-02  0.6459E-02
    -11.213  0.8936E-02  0.7445E-02
    -11.103  0.3594E-02  0.7842E-02
    -10.992  0.1612E-02  0.8019E-02
    -10.882  0.6853E-02  0.8776E-02
    -10.772  0.7820E-02  0.9639E-02
    -10.661  0.3647E-02  0.1004E-01
    -10.551  0.2619E-02  0.1033E-01
    -10.441  0.1770E-02  0.1053E-01
    -10.330  0.4891E-02  0.1107E-01
    -10.220  0.7143E-02  0.1185E-01
    -10.110  0.3552E-02  0.1225E-01
     -9.999  0.3316E-02  0.1261E-01
     -9.889  0.2351E-02  0.1287E-01
     -9.779  0.8172E-03  0.1296E-01
     -9.668  0.4044E-02  0.1341E-01
     -9.558  0.6589E-02  0.1413E-01
     -9.447  0.6236E-02  0.1482E-01
     -9.337  0.4712E-02  0.1534E-01
     -9.227  0.8978E-03  0.1544E-01
     -9.116  0.2718E-02  0.1574E-01
     -9.006  0.4921E-02  0.1628E-01
     -8.896  0.2857E-02  0.1660E-01
     -8.785  0.5895E-03  0.1666E-01
     -8.675  0.1277E-03  0.1668E-01
     -8.565  0.1469E-02  0.1684E-01
     -8.454  0.3988E-02  0.1728E-01
     -8.344  0.5696E-02  0.1791E-01
     -8.234  0.5980E-02  0.1857E-01
     -8.123  0.3577E-02  0.1896E-01
     -8.013  0.1926E-02  0.1918E-01
     -7.903  0.1961E-02  0.1939E-01
     -7.792  0.2048E-02  0.1962E-01
     -7.682  0.2222E-02  0.1986E-01
     -7.572  0.1149E-02  0.1999E-01
     -7.461  0.3231E-03  0.2003E-01
     -7.351  0.2943E-02  0.2035E-01
     -7.240  0.7055E-02  0.2113E-01
     -7.130  0.6543E-02  0.2185E-01
     -7.020  0.3328E-02  0.2222E-01
     -6.909  0.2103E-02  0.2245E-01
     -6.799  0.4281E-03  0.2250E-01
     -6.689  0.1106E-04  0.2250E-01
     -6.578  0.6658E-05  0.2250E-01
     -6.468  0.3518E-03  0.2254E-01
     -6.358  0.3078E-02  0.2288E-01
     -6.247  0.7295E-02  0.2368E-01
     -6.137  0.4026E-02  0.2413E-01
     -6.027  0.5244E-03  0.2419E-01
     -5.916  0.2422E-02  0.2445E-01
     -5.806  0.5940E-02  0.2511E-01
     -5.696  0.3843E-02  0.2553E-01
     -5.585  0.2238E-02  0.2578E-01
     -5.475  0.1001E-02  0.2589E-01
     -5.365  0.3191E-02  0.2624E-01
     -5.254  0.3262E-02  0.2660E-01
     -5.144  0.5654E-03  0.2667E-01
     -5.033  0.1386E-04  0.2667E-01
     -4.923  0.3891E-07  0.2667E-01
     -4.813  0.1095E-10  0.2667E-01
     -4.702  0.2909E-15  0.2667E-01
     -4.592  0.0000E+00  0.2667E-01
     -4.482  0.0000E+00  0.2667E-01
     -4.371  0.4258E-14  0.2667E-01
     -4.261  0.9136E-10  0.2667E-01
     -4.151  0.1841E-06  0.2667E-01
     -4.040  0.3662E-04  0.2667E-01
     -3.930  0.7904E-03  0.2676E-01
     -3.820  0.2133E-02  0.2699E-01
     -3.709  0.7803E-03  0.2708E-01
     -3.599  0.4371E-04  0.2708E-01
     -3.489  0.3611E-03  0.2712E-01
     -3.378  0.2052E-02  0.2735E-01
     -3.268  0.3173E-02  0.2770E-01
     -3.157  0.4050E-02  0.2815E-01
     -3.047  0.1925E-02  0.2836E-01
     -2.937  0.1991E-02  0.2858E-01
     -2.826  0.1407E-02  0.2873E-01
     -2.716  0.2753E-03  0.2877E-01
     -2.606  0.1499E-02  0.2893E-01
     -2.495  0.3065E-02  0.2927E-01
     -2.385  0.2853E-02  0.2958E-01
     -2.275  0.4313E-02  0.3006E-01
     -2.164  0.9131E-02  0.3107E-01
     -2.054  0.1247E-01  0.3244E-01
     -1.944  0.7144E-02  0.3323E-01
     -1.833  0.5505E-02  0.3384E-01
     -1.723  0.7944E-02  0.3472E-01
     -1.613  0.5621E-02  0.3534E-01
     -1.502  0.6763E-02  0.3608E-01
     -1.392  0.4933E-02  0.3663E-01
     -1.282  0.4316E-02  0.3710E-01
     -1.171  0.5052E-02  0.3766E-01
     -1.061  0.2691E-02  0.3796E-01
     -0.950  0.4204E-02  0.3842E-01
     -0.840  0.8771E-02  0.3939E-01
     -0.730  0.5536E-02  0.4000E-01
     -0.619  0.5148E-02  0.4057E-01
     -0.509  0.9720E-02  0.4164E-01
     -0.399  0.8922E-02  0.4263E-01
     -0.288  0.5991E-02  0.4329E-01
     -0.178  0.5631E-02  0.4391E-01
     -0.068  0.5293E-02  0.4449E-01
      0.043  0.7257E-02  0.4529E-01
      0.153  0.1007E-01  0.4640E-01
      0.263  0.7597E-02  0.4724E-01
      0.374  0.5229E-02  0.4782E-01
      0.484  0.6089E-02  0.4849E-01
      0.594  0.6692E-02  0.4923E-01
      0.705  0.8325E-02  0.5015E-01
      0.815  0.8055E-02  0.5104E-01
      0.925  0.6383E-02  0.5174E-01
      1.036  0.4384E-02  0.5223E-01
      1.146  0.5453E-02  0.5283E-01
      1.257  0.5814E-02  0.5347E-01
      1.367  0.4105E-02  0.5392E-01
      1.477  0.5013E-02  0.5447E-01
      1.588  0.7533E-02  0.5531E-01
      1.698  0.8375E-02  0.5623E-01
      1.808  0.6473E-02  0.5694E-01
      1.919  0.6483E-02  0.5766E-01
      2.029  0.1123E-01  0.5890E-01
      2.139  0.1036E-01  0.6004E-01
      2.250  0.7474E-02  0.6087E-01
      2.360  0.5049E-02  0.6142E-01
      2.470  0.4376E-02  0.6191E-01
      2.581  0.8713E-02  0.6287E-01
      2.691  0.6627E-02  0.6360E-01
      2.801  0.2231E-02  0.6385E-01
      2.912  0.6820E-02  0.6460E-01
      3.022  0.8382E-02  0.6552E-01
      3.132  0.9411E-02  0.6656E-01
      3.243  0.1118E-01  0.6780E-01
      3.353  0.9561E-02  0.6885E-01
      3.464  0.5528E-02  0.6946E-01
      3.574  0.7194E-02  0.7025E-01
      3.684  0.6432E-02  0.7096E-01
      3.795  0.3452E-02  0.7135E-01
      3.905  0.6391E-02  0.7205E-01
      4.015  0.8483E-02  0.7299E-01
      4.126  0.3971E-02  0.7342E-01
      4.236  0.5168E-02  0.7400E-01
      4.346  0.9708E-02  0.7507E-01
      4.457  0.8901E-02  0.7605E-01
      4.567  0.7499E-02  0.7688E-01
      4.677  0.9917E-02  0.7797E-01
      4.788  0.8698E-02  0.7893E-01
      4.898  0.1230E-01  0.8029E-01
      5.008  0.1702E-01  0.8216E-01
      5.119  0.9070E-02  0.8317E-01
      5.229  0.5594E-02  0.8378E-01
      5.339  0.7055E-02  0.8456E-01
      5.450  0.9054E-02  0.8556E-01
      5.560  0.1040E-01  0.8671E-01
      5.671  0.1939E-01  0.8885E-01
      5.781  0.2103E-01  0.9117E-01
      5.891  0.8509E-02  0.9211E-01
      6.002  0.4769E-02  0.9263E-01
      6.112  0.7468E-02  0.9346E-01
      6.222  0.9957E-02  0.9456E-01
      6.333  0.7412E-02  0.9537E-01
      6.443  0.4130E-02  0.9583E-01
      6.553  0.4613E-02  0.9634E-01
      6.664  0.4149E-02  0.9680E-01
      6.774  0.2355E-02  0.9706E-01
      6.884  0.1625E-02  0.9724E-01
      6.995  0.1972E-02  0.9745E-01
      7.105  0.4057E-03  0.9750E-01
      7.215  0.1480E-03  0.9752E-01
      7.326  0.1410E-02  0.9767E-01
      7.436  0.1882E-02  0.9788E-01
      7.546  0.3368E-03  0.9792E-01
      7.657  0.3987E-04  0.9792E-01
      7.767  0.9699E-03  0.9803E-01
      7.878  0.4321E-02  0.9850E-01
      7.988  0.5099E-02  0.9907E-01
      8.098  0.4440E-02  0.9956E-01
      8.209  0.3430E-02  0.9994E-01
      8.319  0.2570E-02  0.1002E+00
      8.429  0.1882E-02  0.1004E+00
      8.540  0.1966E-02  0.1006E+00
      8.650  0.1542E-02  0.1008E+00
      8.760  0.1762E-03  0.1008E+00
      8.871  0.9376E-04  0.1008E+00
      8.981  0.1196E-02  0.1010E+00
      9.091  0.2053E-02  0.1012E+00
      9.202  0.1914E-02  0.1014E+00
      9.312  0.8288E-02  0.1023E+00
      9.422  0.9811E-02  0.1034E+00
      9.533  0.4321E-02  0.1039E+00
      9.643  0.2155E-02  0.1041E+00
      9.754  0.1238E-02  0.1043E+00
      9.864  0.5429E-02  0.1049E+00
      9.974  0.8145E-02  0.1058E+00
     10.085  0.8609E-02  0.1067E+00
     10.195  0.9500E-02  0.1078E+00
     10.305  0.9565E-02  0.1088E+00
     10.416  0.9518E-02  0.1099E+00
     10.526  0.8052E-02  0.1108E+00
     10.636  0.7283E-02  0.1116E+00
     10.747  0.3835E-02  0.1120E+00
     10.857  0.2898E-02  0.1123E+00
     10.967  0.1664E-02  0.1125E+00
     11.078  0.1031E-02  0.1126E+00
     11.188  0.4590E-02  0.1131E+00
     11.298  0.9362E-02  0.1141E+00
     11.409  0.1372E-01  0.1156E+00
     11.519  0.7898E-02  0.1165E+00
     11.629  0.2868E-02  0.1168E+00
     11.740  0.6635E-02  0.1176E+00
     11.850  0.8924E-02  0.1186E+00
     11.961  0.1175E-01  0.1199E+00
     12.071  0.7579E-02  0.1207E+00
     12.181  0.5832E-02  0.1213E+00
     12.292  0.6835E-02  0.1221E+00
     12.402  0.9140E-02  0.1231E+00
     12.512  0.8800E-02  0.1241E+00
     12.623  0.1154E-01  0.1253E+00
     12.733  0.1202E-01  0.1267E+00
     12.843  0.1139E-01  0.1279E+00
     12.954  0.9720E-02  0.1290E+00
     13.064  0.7155E-02  0.1298E+00
     13.174  0.5019E-02  0.1303E+00
     13.285  0.3796E-02  0.1308E+00
     13.395  0.4145E-02  0.1312E+00
     13.505  0.4942E-02  0.1318E+00
     13.616  0.5726E-02  0.1324E+00
     13.726  0.7227E-02  0.1332E+00
     13.836  0.5815E-02  0.1338E+00
     13.947  0.2999E-02  0.1342E+00
     14.057  0.3934E-02  0.1346E+00
     14.168  0.8040E-02  0.1355E+00
     14.278  0.4140E-02  0.1359E+00
     14.388  0.2988E-02  0.1363E+00
     14.499  0.2695E-02  0.1366E+00
     14.609  0.8643E-03  0.1367E+00
     14.719  0.7150E-04  0.1367E+00
     14.830  0.8166E-03  0.1368E+00
     14.940  0.3548E-02  0.1372E+00
     15.050  0.4000E-02  0.1376E+00
     15.161  0.4034E-02  0.1380E+00
     15.271  0.4921E-02  0.1386E+00
     15.381  0.4113E-02  0.1390E+00
     15.492  0.4231E-02  0.1395E+00
     15.602  0.9092E-02  0.1405E+00
     15.712  0.1017E-01  0.1416E+00
     15.823  0.7886E-02  0.1425E+00
     15.933  0.5725E-02  0.1431E+00
     16.043  0.4771E-02  0.1437E+00
     16.154  0.3280E-02  0.1440E+00
     16.264  0.5844E-02  0.1447E+00
     16.375  0.5701E-02  0.1453E+00
     16.485  0.3457E-02  0.1457E+00
     16.595  0.4901E-02  0.1462E+00
     16.706  0.3419E-02  0.1466E+00
     16.816  0.6590E-03  0.1467E+00
     16.926  0.2056E-04  0.1467E+00
     17.037  0.7366E-07  0.1467E+00
     17.147  0.2623E-10  0.1467E+00
     17.257  0.8761E-15  0.1467E+00
     17.368  0.0000E+00  0.1467E+00
     17.478  0.0000E+00  0.1467E+00
     17.588  0.0000E+00  0.1467E+00
     17.699  0.0000E+00  0.1467E+00
     17.809  0.0000E+00  0.1467E+00
     17.919  0.0000E+00  0.1467E+00
     18.030  0.0000E+00  0.1467E+00
     18.140  0.0000E+00  0.1467E+00
