    8    8  300    1
  0.5959285E+01  0.3807129E-09  0.3626002E-09  0.4162306E-09  0.5000000E-15
  1.000000000000000E-004
  CAR 
 unknown system                          
     32     16     22
 
  0.1250000E+00  0.1250000E+00  0.1250000E+00  0.6250000E-01
    1      -13.460218   1.000000
    2      -10.272900   1.000000
    3       -6.281449   1.000000
    4       -5.334884   1.000000
    5       -2.292512   1.000000
    6       -2.256183   1.000000
    7       -1.571111   1.000000
    8       -0.892689   1.000000
    9        1.997257   1.000000
   10        3.229149   1.000000
   11        4.281682   1.000000
   12        4.487330   1.000000
   13        4.840794   1.000000
   14        5.707998   1.000000
   15        5.759360   1.000000
   16        8.313050   1.000000
   17       11.314207   0.000000
   18       12.327110   0.000000
   19       12.361465   0.000000
   20       12.695616   0.000000
   21       13.241638   0.000000
   22       15.490585   0.000000
 
  0.3750000E+00  0.1250000E+00  0.1250000E+00  0.6250000E-01
    1      -12.536048   1.000000
    2      -10.302405   1.000000
    3       -8.449119   1.000000
    4       -6.993891   1.000000
    5       -2.099835   1.000000
    6       -0.414174   1.000000
    7        0.426232   1.000000
    8        0.683739   1.000000
    9        1.615047   1.000000
   10        1.939871   1.000000
   11        3.491360   1.000000
   12        3.882378   1.000000
   13        3.997499   1.000000
   14        5.625747   1.000000
   15        7.964295   1.000000
   16        9.936585   0.978801
   17       10.050704   0.661182
   18       11.731706   0.000000
   19       11.733197   0.000000
   20       12.272925   0.000000
   21       14.117313   0.000000
   22       16.557965   0.000000
 
 -0.3750000E+00  0.1250000E+00  0.1250000E+00  0.6250000E-01
    1      -11.346358   1.000000
    2      -10.387746   1.000000
    3       -9.640248   1.000000
    4       -8.540254   1.000000
    5       -0.551720   1.000000
    6       -0.317084   1.000000
    7        0.564644   1.000000
    8        1.162549   1.000000
    9        2.582005   1.000000
   10        2.908940   1.000000
   11        3.566047   1.000000
   12        4.652854   1.000000
   13        4.948913   1.000000
   14        5.284490   1.000000
   15        6.569042   1.000000
   16        6.907890   1.000000
   17        8.531631   1.000000
   18       10.512699   0.000000
   19       11.792701   0.000000
   20       12.747182   0.000000
   21       14.447521   0.000000
   22       15.602424   0.000000
 
 -0.1250000E+00  0.1250000E+00  0.1250000E+00  0.6250000E-01
    1      -13.062197   1.000000
    2       -9.670406   1.000000
    3       -8.130641   1.000000
    4       -7.310779   1.000000
    5       -1.278568   1.000000
    6       -0.984722   1.000000
    7        0.244886   1.000000
    8        0.820143   1.000000
    9        2.271369   1.000000
   10        2.908012   1.000000
   11        3.294638   1.000000
   12        4.176827   1.000000
   13        4.832251   1.000000
   14        5.154600   1.000000
   15        5.655890   1.000000
   16        7.870465   1.000000
   17        9.890346   0.996357
   18       11.415543   0.000000
   19       12.085285   0.000000
   20       12.412624   0.000000
   21       13.064082   0.000000
   22       15.690098   0.000000
 
  0.1250000E+00  0.3750000E+00  0.1250000E+00  0.6250000E-01
    1      -12.672387   1.000000
    2      -11.368330   1.000000
    3       -5.824230   1.000000
    4       -5.390832   1.000000
    5       -2.141920   1.000000
    6       -2.090974   1.000000
    7       -1.822009   1.000000
    8       -0.538644   1.000000
    9        0.952393   1.000000
   10        2.551894   1.000000
   11        2.911406   1.000000
   12        3.129778   1.000000
   13        4.690998   1.000000
   14        5.134562   1.000000
   15        8.052577   1.000000
   16        9.325732   1.000000
   17       12.608907   0.000000
   18       12.975404   0.000000
   19       13.779983   0.000000
   20       14.891449   0.000000
   21       15.586617   0.000000
   22       15.964680   0.000000
 
  0.3750000E+00  0.3750000E+00  0.1250000E+00  0.6250000E-01
    1      -11.863132   1.000000
    2      -10.894337   1.000000
    3       -7.909697   1.000000
    4       -7.258947   1.000000
    5       -2.953170   1.000000
    6       -1.832601   1.000000
    7       -0.437724   1.000000
    8        0.369156   1.000000
    9        1.380819   1.000000
   10        2.108915   1.000000
   11        3.091864   1.000000
   12        5.007883   1.000000
   13        5.784975   1.000000
   14        6.395353   1.000000
   15        9.289162   1.000000
   16        9.554481   1.000000
   17       10.594303   0.000000
   18       11.359839   0.000000
   19       13.383577   0.000000
   20       13.674057   0.000000
   21       16.231739   0.000000
   22       16.491685   0.000000
 
 -0.3750000E+00  0.3750000E+00  0.1250000E+00  0.6250000E-01
    1      -10.606608   1.000000
    2       -9.975776   1.000000
    3       -9.633472   1.000000
    4       -9.433877   1.000000
    5       -1.989132   1.000000
    6       -1.609284   1.000000
    7       -0.862388   1.000000
    8        0.487039   1.000000
    9        3.122003   1.000000
   10        4.954618   1.000000
   11        4.984555   1.000000
   12        5.370748   1.000000
   13        5.445660   1.000000
   14        5.708794   1.000000
   15        6.197146   1.000000
   16        6.499205   1.000000
   17       10.513574   0.000000
   18       11.469626   0.000000
   19       12.544347   0.000000
   20       12.611289   0.000000
   21       16.289806   0.000000
   22       16.635359   0.000000
 
 -0.1250000E+00  0.3750000E+00  0.1250000E+00  0.6250000E-01
    1      -12.254867   1.000000
    2      -10.887858   1.000000
    3       -7.713949   1.000000
    4       -7.341710   1.000000
    5       -0.610569   1.000000
    6       -0.089518   1.000000
    7        0.034056   1.000000
    8        0.215233   1.000000
    9        1.056597   1.000000
   10        1.506243   1.000000
   11        1.617674   1.000000
   12        2.358627   1.000000
   13        5.603628   1.000000
   14        6.085789   1.000000
   15        8.151875   1.000000
   16        9.392854   1.000000
   17       10.342229   0.000105
   18       11.217405   0.000000
   19       13.607737   0.000000
   20       14.109664   0.000000
   21       15.764076   0.000000
   22       15.844473   0.000000
 
  0.1250000E+00  0.1250000E+00  0.3750000E+00  0.6250000E-01
    1      -12.714408   1.000000
    2      -10.088612   1.000000
    3       -8.967181   1.000000
    4       -6.371708   1.000000
    5       -2.056334   1.000000
    6        0.011096   1.000000
    7        0.113229   1.000000
    8        1.158163   1.000000
    9        1.263566   1.000000
   10        2.013414   1.000000
   11        3.221937   1.000000
   12        4.304237   1.000000
   13        4.606688   1.000000
   14        6.180387   1.000000
   15        7.341795   1.000000
   16        9.272854   1.000000
   17       10.335134   0.000155
   18       10.850474   0.000000
   19       11.367504   0.000000
   20       11.916436   0.000000
   21       13.847409   0.000000
   22       14.959742   0.000000
 
  0.3750000E+00  0.1250000E+00  0.3750000E+00  0.6250000E-01
    1      -12.614140   1.000000
    2      -11.272686   1.000000
    3       -6.269976   1.000000
    4       -5.903272   1.000000
    5       -2.465080   1.000000
    6       -1.752185   1.000000
    7       -1.462804   1.000000
    8       -0.826925   1.000000
    9        0.628364   1.000000
   10        2.644794   1.000000
   11        3.675955   1.000000
   12        3.970800   1.000000
   13        5.384459   1.000000
   14        5.722005   1.000000
   15        9.299671   1.000000
   16       11.356127   0.000000
   17       12.590713   0.000000
   18       12.752763   0.000000
   19       12.952973   0.000000
   20       13.542123   0.000000
   21       13.695213   0.000000
   22       14.316236   0.000000
 
 -0.3750000E+00  0.1250000E+00  0.3750000E+00  0.6250000E-01
    1      -11.614047   1.000000
    2      -11.328305   1.000000
    3       -9.093582   1.000000
    4       -6.259845   1.000000
    5       -1.508967   1.000000
    6       -1.171527   1.000000
    7       -0.493971   1.000000
    8        1.751054   1.000000
    9        1.766196   1.000000
   10        2.167607   1.000000
   11        2.193431   1.000000
   12        3.087390   1.000000
   13        4.915084   1.000000
   14        6.679033   1.000000
   15        9.825286   0.999843
   16       10.184943   0.069073
   17       10.360901   0.000036
   18       11.139630   0.000000
   19       11.673268   0.000000
   20       11.923095   0.000000
   21       15.566704   0.000000
   22       16.157476   0.000000
 
 -0.1250000E+00  0.1250000E+00  0.3750000E+00  0.6250000E-01
    1      -11.529714   1.000000
    2      -10.874283   1.000000
    3       -9.096358   1.000000
    4       -8.317738   1.000000
    5       -0.632829   1.000000
    6       -0.234659   1.000000
    7        0.671764   1.000000
    8        1.490759   1.000000
    9        1.889273   1.000000
   10        3.869711   1.000000
   11        4.406686   1.000000
   12        4.897497   1.000000
   13        5.587294   1.000000
   14        5.640302   1.000000
   15        5.757812   1.000000
   16        6.245949   1.000000
   17        7.829068   1.000000
   18       10.054991   0.638732
   19       10.524333   0.000000
   20       12.419430   0.000000
   21       14.060006   0.000000
   22       15.760184   0.000000
 
  0.1250000E+00  0.3750000E+00  0.3750000E+00  0.6250000E-01
    1      -11.991070   1.000000
    2      -10.877888   1.000000
    3       -8.261194   1.000000
    4       -7.167906   1.000000
    5       -2.589736   1.000000
    6       -1.283298   1.000000
    7        0.126781   1.000000
    8        0.779499   1.000000
    9        2.025638   1.000000
   10        2.542496   1.000000
   11        2.914928   1.000000
   12        4.460742   1.000000
   13        4.618104   1.000000
   14        5.565442   1.000000
   15        9.009987   1.000000
   16        9.392129   1.000000
   17       10.710270   0.000000
   18       11.227731   0.000000
   19       12.869968   0.000000
   20       13.137213   0.000000
   21       14.140226   0.000000
   22       15.252447   0.000000
 
  0.3750000E+00  0.3750000E+00  0.3750000E+00  0.6250000E-01
    1      -12.078088   1.000000
    2      -11.471411   1.000000
    3       -5.847320   1.000000
    4       -5.664755   1.000000
    5       -3.875126   1.000000
    6       -3.184774   1.000000
    7       -2.176333   1.000000
    8       -2.137147   1.000000
    9        3.277454   1.000000
   10        3.332828   1.000000
   11        3.620704   1.000000
   12        4.914344   1.000000
   13        5.709268   1.000000
   14        6.014619   1.000000
   15       10.228799   0.017735
   16       10.306193   0.000693
   17       12.741246   0.000000
   18       12.822089   0.000000
   19       12.895691   0.000000
   20       13.423506   0.000000
   21       15.085499   0.000000
   22       15.190392   0.000000
 
 -0.3750000E+00  0.3750000E+00  0.3750000E+00  0.6250000E-01
    1      -11.301479   1.000000
    2      -11.169436   1.000000
    3       -8.357602   1.000000
    4       -7.179082   1.000000
    5       -3.396857   1.000000
    6       -3.249101   1.000000
    7       -0.178958   1.000000
    8        0.841440   1.000000
    9        2.508872   1.000000
   10        3.497276   1.000000
   11        4.274237   1.000000
   12        4.693989   1.000000
   13        4.974227   1.000000
   14        5.714947   1.000000
   15        9.873701   0.998244
   16       10.148877   0.165358
   17       11.902503   0.000000
   18       11.936252   0.000000
   19       12.215345   0.000000
   20       12.545383   0.000000
   21       15.353576   0.000000
   22       15.626825   0.000000
 
 -0.1250000E+00  0.3750000E+00  0.3750000E+00  0.6250000E-01
    1      -10.745248   1.000000
    2      -10.272967   1.000000
    3       -9.486527   1.000000
    4       -9.438330   1.000000
    5       -1.765764   1.000000
    6       -0.883818   1.000000
    7        0.095425   1.000000
    8        1.636201   1.000000
    9        2.021652   1.000000
   10        3.935072   1.000000
   11        4.345508   1.000000
   12        5.337471   1.000000
   13        5.543307   1.000000
   14        5.958069   1.000000
   15        6.125357   1.000000
   16        6.256957   1.000000
   17       10.084765   0.473687
   18       11.360086   0.000000
   19       11.916557   0.000000
   20       12.109483   0.000000
   21       15.969452   0.000000
   22       16.318552   0.000000
