Automatically generated mesh
      16
Reciprocal lattice
    0.12500000000000    0.12500000000000    0.12499999999999             4
    0.37500000000000    0.12500000000000    0.12499999999999             4
   -0.37500000000000    0.12500000000000    0.12500000000000             4
   -0.12500000000000    0.12500000000000    0.12500000000000             4
    0.12500000000000    0.37500000000000    0.12499999999999             4
    0.37500000000000    0.37500000000000    0.12499999999999             4
   -0.37500000000000    0.37500000000000    0.12500000000000             4
   -0.12500000000000    0.37500000000000    0.12500000000000             4
    0.12500000000000    0.12500000000000    0.37500000000000             4
    0.37500000000000    0.12500000000000    0.37500000000000             4
   -0.37500000000000    0.12500000000000    0.37500000000000             4
   -0.12500000000000    0.12500000000000    0.37500000000000             4
    0.12500000000000    0.37500000000000    0.37500000000000             4
    0.37500000000000    0.37500000000000    0.37500000000000             4
   -0.37500000000000    0.37500000000000    0.37500000000000             4
   -0.12500000000000    0.37500000000000    0.37500000000000             4
