       N       E                     dE             d eps       ncg     rms          rms(c)
DAV:   1     0.163978633519E+03    0.16398E+03   -0.19159E+04   704   0.160E+03
DAV:   2    -0.443695374858E+02   -0.20835E+03   -0.19235E+03   930   0.366E+02
DAV:   3    -0.541588787056E+02   -0.97893E+01   -0.95261E+01   888   0.780E+01
DAV:   4    -0.543041403916E+02   -0.14526E+00   -0.14510E+00   830   0.928E+00
DAV:   5    -0.543068163212E+02   -0.26759E-02   -0.26739E-02   902   0.101E+00    0.199E+01
DAV:   6    -0.459905425406E+02    0.83163E+01   -0.24335E+01   834   0.334E+01    0.792E+00
DAV:   7    -0.455568096764E+02    0.43373E+00   -0.11521E+00   818   0.883E+00    0.506E+00
DAV:   8    -0.454434718162E+02    0.11334E+00   -0.55027E-01   832   0.534E+00    0.975E-01
DAV:   9    -0.454392619965E+02    0.42098E-02   -0.85033E-02   854   0.232E+00    0.463E-01
DAV:  10    -0.454390746689E+02    0.18733E-03   -0.30393E-03   848   0.457E-01    0.133E-01
DAV:  11    -0.454391071224E+02   -0.32454E-04   -0.76553E-04   856   0.182E-01    0.754E-02
DAV:  12    -0.454390833147E+02    0.23808E-04   -0.98624E-05   866   0.748E-02    0.142E-02
DAV:  13    -0.454390819584E+02    0.13564E-05   -0.15774E-05   912   0.287E-02    0.546E-03
DAV:  14    -0.454390817569E+02    0.20151E-06   -0.39188E-07   556   0.500E-03
   1 F= -.45439082E+02 E0= -.45435299E+02  d E =-.454391E+02
       N       E                     dE             d eps       ncg     rms          rms(c)
DAV:   1    -0.325092298706E+02    0.12930E+02   -0.23807E+03   710   0.348E+02    0.432E+01
DAV:   2    -0.493464538829E+02   -0.16837E+02   -0.25647E+02   972   0.105E+02    0.205E+01
DAV:   3    -0.475267606722E+02    0.18197E+01   -0.85747E+00   836   0.203E+01    0.158E+01
DAV:   4    -0.468060629500E+02    0.72070E+00   -0.28057E+00   940   0.104E+01    0.736E+00
DAV:   5    -0.468009936109E+02    0.50693E-02   -0.50305E-01   902   0.484E+00    0.171E+00
DAV:   6    -0.467482075657E+02    0.52786E-01   -0.24902E-01   888   0.319E+00    0.735E-01
DAV:   7    -0.467497980480E+02   -0.15905E-02   -0.15446E-02   868   0.955E-01    0.271E-01
DAV:   8    -0.467493098073E+02    0.48824E-03   -0.96453E-04   860   0.207E-01    0.102E-01
DAV:   9    -0.467492400683E+02    0.69739E-04   -0.53364E-04   900   0.142E-01    0.906E-03
DAV:  10    -0.467492397727E+02    0.29562E-06   -0.11796E-05   842   0.277E-02    0.459E-03
DAV:  11    -0.467492398608E+02   -0.88122E-07   -0.29828E-07   538   0.452E-03
   2 F= -.46749240E+02 E0= -.46745158E+02  d E =-.131016E+01
       N       E                     dE             d eps       ncg     rms          rms(c)
DAV:   1    -0.472166134372E+02   -0.46737E+00   -0.51133E+01   704   0.510E+01    0.141E+00
DAV:   2    -0.473539758989E+02   -0.13736E+00   -0.14376E+00   950   0.821E+00    0.509E-01
DAV:   3    -0.473512160847E+02    0.27598E-02   -0.11586E-02   820   0.922E-01    0.305E-01
DAV:   4    -0.473501897270E+02    0.10264E-02   -0.58158E-03   958   0.583E-01    0.732E-02
DAV:   5    -0.473502143471E+02   -0.24620E-04   -0.10439E-03   816   0.241E-01    0.429E-02
DAV:   6    -0.473502140741E+02    0.27301E-06   -0.22222E-05   904   0.411E-02    0.208E-02
DAV:   7    -0.473502071211E+02    0.69530E-05   -0.19878E-05   960   0.341E-02    0.271E-03
DAV:   8    -0.473502073845E+02   -0.26339E-06   -0.36651E-06   618   0.142E-02
   3 F= -.47350207E+02 E0= -.47344847E+02  d E =-.191113E+01
       N       E                     dE             d eps       ncg     rms          rms(c)
DAV:   1    -0.479330870969E+02   -0.58288E+00   -0.56209E+01   728   0.538E+01    0.169E+00
DAV:   2    -0.480775745519E+02   -0.14449E+00   -0.15192E+00   958   0.862E+00    0.657E-01
DAV:   3    -0.480731365842E+02    0.44380E-02   -0.11723E-02   810   0.953E-01    0.367E-01
DAV:   4    -0.480717790849E+02    0.13575E-02   -0.59205E-03   934   0.599E-01    0.742E-02
DAV:   5    -0.480718043642E+02   -0.25279E-04   -0.95455E-04   860   0.231E-01    0.402E-02
DAV:   6    -0.480717978475E+02    0.65167E-05   -0.22300E-05   912   0.397E-02    0.147E-02
DAV:   7    -0.480717940050E+02    0.38425E-05   -0.12515E-05   954   0.274E-02    0.271E-03
DAV:   8    -0.480717941391E+02   -0.13414E-06   -0.21221E-06   626   0.112E-02
   4 F= -.48071794E+02 E0= -.48069021E+02  d E =-.263271E+01
       N       E                     dE             d eps       ncg     rms          rms(c)
DAV:   1    -0.486181991154E+02   -0.54641E+00   -0.36917E+02   716   0.138E+02    0.687E+00
DAV:   2    -0.491812855349E+02   -0.56309E+00   -0.10693E+01   942   0.248E+01    0.230E+00
DAV:   3    -0.490825013351E+02    0.98784E-01   -0.23032E-01   772   0.384E+00    0.110E+00
DAV:   4    -0.490641164347E+02    0.18385E-01   -0.60776E-02   836   0.179E+00    0.430E-01
DAV:   5    -0.490633348031E+02    0.78163E-03   -0.76239E-03   888   0.709E-01    0.213E-01
DAV:   6    -0.490631884839E+02    0.14632E-03   -0.93891E-04   814   0.246E-01    0.356E-02
DAV:   7    -0.490631802785E+02    0.82054E-05   -0.11094E-04   816   0.834E-02    0.120E-02
DAV:   8    -0.490631798178E+02    0.46072E-06   -0.76352E-06   840   0.191E-02
   5 F= -.49063180E+02 E0= -.49056232E+02  d E =-.362410E+01
       N       E                     dE             d eps       ncg     rms          rms(c)
DAV:   1    -0.490643469645E+02   -0.11667E-02   -0.28620E-01   752   0.392E+00    0.246E-01
DAV:   2    -0.490636336076E+02    0.71336E-03   -0.96154E-03   938   0.725E-01    0.901E-02
DAV:   3    -0.490634757488E+02    0.15786E-03   -0.33193E-04   818   0.150E-01    0.526E-02
DAV:   4    -0.490634402234E+02    0.35525E-04   -0.18862E-04   882   0.959E-02    0.139E-02
DAV:   5    -0.490634406923E+02   -0.46888E-06   -0.29919E-05   800   0.423E-02    0.801E-03
DAV:   6    -0.490634403968E+02    0.29544E-06   -0.10283E-06   472   0.865E-03
   6 F= -.49063440E+02 E0= -.49056045E+02  d E =-.362436E+01
       N       E                     dE             d eps       ncg     rms          rms(c)
DAV:   1    -0.490637177207E+02   -0.27703E-03   -0.37771E-02   752   0.142E+00    0.883E-02
DAV:   2    -0.490636207633E+02    0.96957E-04   -0.12416E-03   950   0.261E-01    0.322E-02
DAV:   3    -0.490635997604E+02    0.21003E-04   -0.42063E-05   812   0.538E-02    0.185E-02
DAV:   4    -0.490635948307E+02    0.49297E-05   -0.24226E-05   888   0.344E-02    0.495E-03
DAV:   5    -0.490635948219E+02    0.87525E-08   -0.37135E-06   612   0.152E-02
   7 F= -.49063595E+02 E0= -.49056368E+02  d E =-.362451E+01
