 vasp.6.2.1 16May21 (build Oct 21 2023 21:03:18) complex                        
  
 executed on             LinuxIFC date 2024.05.25  23:02:19
 running on    2 total cores
 distrk:  each k-point on    2 cores,    1 groups
 distr:  one band on NCORE=   1 cores,    2 groups


--------------------------------------------------------------------------------------------------------


 INCAR:
   PREC = accurate
   ENCUT = 600
   EDIFF = 1e-06
   EDIFFG = 1e-05
   IBRION = 2
   ISIF = 2
   ISYM = 2
   ISMEAR = 0
   SIGMA = 0.1
   LREAL = False
   NPAR = 11
   NSW = 300
   ISTART = 0
   LCHARG = False
   LPLANE = False
   LWAVE = False

 POTCAR:    PAW_PBE B 06Sep2000                   
 POTCAR:    PAW_PBE N 08Apr2002                   
 -----------------------------------------------------------------------------
|                                                                             |
|           W    W    AA    RRRRR   N    N  II  N    N   GGGG   !!!           |
|           W    W   A  A   R    R  NN   N  II  NN   N  G    G  !!!           |
|           W    W  A    A  R    R  N N  N  II  N N  N  G       !!!           |
|           W WW W  AAAAAA  RRRRR   N  N N  II  N  N N  G  GGG   !            |
|           WW  WW  A    A  R   R   N   NN  II  N   NN  G    G                |
|           W    W  A    A  R    R  N    N  II  N    N   GGGG   !!!           |
|                                                                             |
|     The value NPAR = 11 specified in the INCAR file was overwritten,        |
|     because it was not compatible with the 2 processes available:           |
|     NPAR = 2                                                                |
|     was used instead, please check that this makes sense for your           |
|     machine.                                                                |
|                                                                             |
 -----------------------------------------------------------------------------

 POTCAR:    PAW_PBE B 06Sep2000                   
   SHA256 =  a32ced30f5ae56fd4d10b4325ff17eb3e4e38ee0f4288bc219fb012fddfa6e97 B/POTCAR              
   COPYR  = (c) Copyright 06Sep2000 Georg Kresse                                                    
   COPYR  = This file is part of the software VASP. Any use, copying, and all other rights are regul
   COPYR  = If you do not have a valid VASP license, you may not use, copy or distribute this file. 
   VRHFIN =B: s2p1                                                                                  
   LEXCH  = PE                                                                                      
   EATOM  =    71.1703 eV,    5.2309 Ry                                                             
                                                                                                    
   TITEL  = PAW_PBE B 06Sep2000                                                                     
   LULTRA =        F    use ultrasoft PP ?                                                          
   IUNSCR =        1    unscreen: 0-lin 1-nonlin 2-no                                               
   RPACOR =    1.200    partial core radius                                                         
   POMASS =   10.811; ZVAL   =    3.000    mass and valenz                                          
   RCORE  =    1.700    outmost cutoff radius                                                       
   RWIGS  =    1.710; RWIGS  =    0.905    wigner-seitz radius (au A)                               
   ENMAX  =  318.614; ENMIN  =  238.960 eV                                                          
   ICORE  =        2    local potential                                                             
   LCOR   =        T    correct aug charges                                                         
   LPAW   =        T    paw PP                                                                      
   EAUG   =  535.514                                                                                
   DEXC   =    0.000                                                                                
   RMAX   =    1.732    core radius for proj-oper                                                   
   RAUG   =    1.300    factor for augmentation sphere                                              
   RDEP   =    1.757    radius for radial grids                                                     
   RDEPT  =    1.436    core radius for aug-charge                                                  
                                                                                                    
   Atomic configuration                                                                             
    4 entries                                                                                       
     n  l   j            E        occ.                                                              
     1  0  0.50      -180.5896   2.0000                                                             
     2  0  0.50        -9.4431   2.0000                                                             
     2  1  0.50        -3.6068   1.0000                                                             
     3  2  1.50        -4.0817   0.0000                                                             
   Description                                                                                      
     l       E           TYP  RCUT    TYP  RCUT                                                     
     0     -9.4430752     23  1.500                                                                 
     0      0.8675899     23  1.500                                                                 
     1     -3.6067955     23  1.700                                                                 
     1      6.1086146     23  1.700                                                                 
     2     -4.0817478      7  1.700                                                                 
  local pseudopotential read in
  partial core-charges read in
  partial kinetic energy density read in
  atomic valenz-charges read in
  non local Contribution for L=           0  read in
    real space projection operators read in
  non local Contribution for L=           0  read in
    real space projection operators read in
  non local Contribution for L=           1  read in
    real space projection operators read in
  non local Contribution for L=           1  read in
    real space projection operators read in
    PAW grid and wavefunctions read in
 
   number of l-projection  operators is LMAX  =           4
   number of lm-projection operators is LMMAX =           8
 
 POTCAR:    PAW_PBE N 08Apr2002                   
   SHA256 =  e053789ff3a61a86a1b75d8a110fcc91f86041011e7b0817c7c99e4e8a6349d7 N/POTCAR              
   COPYR  = (c) Copyright 08Apr2002 Georg Kresse                                                    
   COPYR  = This file is part of the software VASP. Any use, copying, and all other rights are regul
   COPYR  = If you do not have a valid VASP license, you may not use, copy or distribute this file. 
   VRHFIN =N: s2p3                                                                                  
   LEXCH  = PE                                                                                      
   EATOM  =   264.5486 eV,   19.4438 Ry                                                             
                                                                                                    
   TITEL  = PAW_PBE N 08Apr2002                                                                     
   LULTRA =        F    use ultrasoft PP ?                                                          
   IUNSCR =        1    unscreen: 0-lin 1-nonlin 2-no                                               
   RPACOR =    1.200    partial core radius                                                         
   POMASS =   14.001; ZVAL   =    5.000    mass and valenz                                          
   RCORE  =    1.500    outmost cutoff radius                                                       
   RWIGS  =    1.400; RWIGS  =    0.741    wigner-seitz radius (au A)                               
   ENMAX  =  400.000; ENMIN  =  300.000 eV                                                          
   ICORE  =        2    local potential                                                             
   LCOR   =        T    correct aug charges                                                         
   LPAW   =        T    paw PP                                                                      
   EAUG   =  627.112                                                                                
   DEXC   =    0.000                                                                                
   RMAX   =    1.529    core radius for proj-oper                                                   
   RAUG   =    1.300    factor for augmentation sphere                                              
   RDEP   =    1.514    radius for radial grids                                                     
   RDEPT  =    1.338    core radius for aug-charge                                                  
                                                                                                    
   Atomic configuration                                                                             
    4 entries                                                                                       
     n  l   j            E        occ.                                                              
     1  0  0.50      -384.7179   2.0000                                                             
     2  0  0.50       -18.5828   2.0000                                                             
     2  1  0.50        -7.0898   3.0000                                                             
     3  2  1.50        -6.8029   0.0000                                                             
   Description                                                                                      
     l       E           TYP  RCUT    TYP  RCUT                                                     
     0    -18.5828119     23  1.200                                                                 
     0    -13.5018863     23  1.200                                                                 
     1     -7.0897853     23  1.500                                                                 
     1      9.5240782     23  1.500                                                                 
     2     -6.8029130      7  1.500                                                                 
  local pseudopotential read in
  partial core-charges read in
  partial kinetic energy density read in
  atomic valenz-charges read in
  non local Contribution for L=           0  read in
    real space projection operators read in
  non local Contribution for L=           0  read in
    real space projection operators read in
  non local Contribution for L=           1  read in
    real space projection operators read in
  non local Contribution for L=           1  read in
    real space projection operators read in
    PAW grid and wavefunctions read in
 
   number of l-projection  operators is LMAX  =           4
   number of lm-projection operators is LMMAX =           8
 
  PAW_PBE B 06Sep2000                   :
 energy of atom  1       EATOM=  -71.1703
 kinetic energy error for atom=    0.0007 (will be added to EATOM!!)
  PAW_PBE N 08Apr2002                   :
 energy of atom  2       EATOM= -264.5486
 kinetic energy error for atom=    0.0103 (will be added to EATOM!!)
 
 
 POSCAR:  B  N
  positions in direct lattice
  No initial velocities read in
 exchange correlation table for  LEXCH =        8
   RHO(1)=    0.500       N(1)  =     2000
   RHO(2)=  100.500       N(2)  =     4000
 


--------------------------------------------------------------------------------------------------------


 ion  position               nearest neighbor table
   1  0.125  0.125  0.125-   5 1.31   7 1.31   3 1.88   3 1.88
   2  0.125  0.625  0.625-   6 1.31   8 1.31   4 1.88   4 1.88
   3  0.625  0.125  0.625-   5 1.31   7 1.31   1 1.88   1 1.88
   4  0.625  0.625  0.125-   6 1.31   8 1.31   2 1.88   2 1.88
   5  0.375  0.375  0.875-   1 1.31   3 1.31
   6  0.375  0.875  0.375-   2 1.31   4 1.31
   7  0.875  0.375  0.375-   1 1.31   3 1.31
   8  0.875  0.875  0.875-   2 1.31   4 1.31
 
  LATTYP: Found a simple monoclinic cell.
 ALAT       =     3.7587315128
 B/A-ratio  =     0.9646876846
 C/A-ratio  =     1.0128761302
 COS(beta)  =    -0.3947423781
  
  Lattice vectors:
  
 A1 = (   2.4656813600,   0.0000000000,  -2.8369839648)
 A2 = (   0.0000000000,  -3.6260020000,   0.0000000000)
 A3 = (  -3.6260020000,   0.0000000000,  -1.1603206400)


Analysis of symmetry for initial positions (statically):
=====================================================================
 Subroutine PRICEL returns following result:
 
  LATTYP: Found a base centered monoclinic cell.
 ALAT       =     3.8071294293
 B/A-ratio  =     0.9524241472
 C/A-ratio  =     0.4936437784
 COS(beta)  =    -0.3947423781
  
  Lattice vectors:
  
 A1 = (  -1.8130010000,  -1.8130010000,  -0.5801603200)
 A2 = (  -1.8130010000,   1.8130010000,  -0.5801603200)
 A3 = (   1.2328406800,   0.0000000000,  -1.4184919824)
 
   4 primitive cells build up your supercell.
 

 Routine SETGRP: Setting up the symmetry group for a 
 simple monoclinic supercell.


 Subroutine GETGRP returns: Found  2 space group operations
 (whereof  1 operations were pure point group operations)
 out of a pool of  4 trial point group operations.


The static configuration has the point symmetry C_1 .
 The point group associated with its full space group is C_2 .


Analysis of symmetry for dynamics (positions and initial velocities):
=====================================================================
 Subroutine PRICEL returns following result:
 
  LATTYP: Found a base centered monoclinic cell.
 ALAT       =     3.8071294293
 B/A-ratio  =     0.9524241472
 C/A-ratio  =     0.4936437784
 COS(beta)  =    -0.3947423781
  
  Lattice vectors:
  
 A1 = (  -1.8130010000,  -1.8130010000,  -0.5801603200)
 A2 = (  -1.8130010000,   1.8130010000,  -0.5801603200)
 A3 = (   1.2328406800,   0.0000000000,  -1.4184919824)
 
   4 primitive cells build up your supercell.
 

 Routine SETGRP: Setting up the symmetry group for a 
 simple monoclinic supercell.


 Subroutine GETGRP returns: Found  2 space group operations
 (whereof  1 operations were pure point group operations)
 out of a pool of  4 trial point group operations.


The dynamic configuration has the point symmetry C_1 .
 The point group associated with its full space group is C_2 .


Analysis of constrained symmetry for selective dynamics:
=====================================================================
 Subroutine PRICEL returns following result:
 
  LATTYP: Found a base centered monoclinic cell.
 ALAT       =     3.8071294293
 B/A-ratio  =     0.9524241472
 C/A-ratio  =     0.4936437784
 COS(beta)  =    -0.3947423781
  
  Lattice vectors:
  
 A1 = (  -1.8130010000,  -1.8130010000,  -0.5801603200)
 A2 = (  -1.8130010000,   1.8130010000,  -0.5801603200)
 A3 = (   1.2328406800,   0.0000000000,  -1.4184919824)
 
   4 primitive cells build up your supercell.
 

 Routine SETGRP: Setting up the symmetry group for a 
 simple monoclinic supercell.


 Subroutine GETGRP returns: Found  2 space group operations
 (whereof  1 operations were pure point group operations)
 out of a pool of  4 trial point group operations.


The constrained configuration has the point symmetry C_1 .
 The point group associated with its full space group is C_2 .


 Subroutine INISYM returns: Found  2 space group operations
 (whereof  1 operations are pure point group operations),
 and found     4 'primitive' translations


----------------------------------------------------------------------------------------

                                     Primitive cell                                     

  volume of cell :      11.9186

  direct lattice vectors                    reciprocal lattice vectors
    -1.813001000 -1.813001000 -0.580160320    -0.215774840 -0.275785838 -0.187534370
    -1.813001000  1.813001000 -0.580160320    -0.215774840  0.275785838 -0.187534370
     1.232840680  0.000000000 -1.418491982     0.176502936  0.000000000 -0.551571676

  length of vectors
     2.628788932  2.628788932  1.879365756     0.397222544  0.397222544  0.579123994

  position of ions in fractional coordinates (direct lattice)
     0.625000000  0.875000000  0.750000000
     0.375000000  0.125000000  0.250000000

  ion indices of the primitive-cell ions
   primitive index   ion index
                 1           1
                 2           5

----------------------------------------------------------------------------------------

 
 
 KPOINTS: KPOINTS created by Atomic Simulation Env

Automatic generation of k-mesh.
 Grid dimensions read from file:
 generate k-points for:    4    4    4

 Generating k-lattice:

  Cartesian coordinates                     Fractional coordinates (reciprocal lattice)
     0.076006577  0.000000000 -0.022062867     0.250000000  0.000000000 -0.000000000
     0.000000000  0.068946459  0.000000000     0.000000000  0.250000000  0.000000000
    -0.022062867  0.000000000  0.068946459    -0.000000000  0.000000000  0.250000000

  Length of vectors
     0.079143982  0.068946459  0.072390499

  Shift w.r.t. Gamma in fractional coordinates (k-lattice)
     0.500000000  0.500000000  0.500000000

 
 Subroutine IBZKPT returns following result:
 ===========================================
 
 Found     16 irreducible k-points:
 
 Following reciprocal coordinates:
            Coordinates               Weight
  0.125000  0.125000  0.125000      4.000000
  0.375000  0.125000  0.125000      4.000000
 -0.375000  0.125000  0.125000      4.000000
 -0.125000  0.125000  0.125000      4.000000
  0.125000  0.375000  0.125000      4.000000
  0.375000  0.375000  0.125000      4.000000
 -0.375000  0.375000  0.125000      4.000000
 -0.125000  0.375000  0.125000      4.000000
  0.125000  0.125000  0.375000      4.000000
  0.375000  0.125000  0.375000      4.000000
 -0.375000  0.125000  0.375000      4.000000
 -0.125000  0.125000  0.375000      4.000000
  0.125000  0.375000  0.375000      4.000000
  0.375000  0.375000  0.375000      4.000000
 -0.375000  0.375000  0.375000      4.000000
 -0.125000  0.375000  0.375000      4.000000
 
 Following cartesian coordinates:
            Coordinates               Weight
  0.026972  0.034473  0.023442      4.000000
  0.102978  0.034473  0.001379      4.000000
 -0.125041  0.034473  0.067568      4.000000
 -0.049035  0.034473  0.045505      4.000000
  0.026972  0.103420  0.023442      4.000000
  0.102978  0.103420  0.001379      4.000000
 -0.125041  0.103420  0.067568      4.000000
 -0.049035  0.103420  0.045505      4.000000
  0.004909  0.034473  0.092388      4.000000
  0.080916  0.034473  0.070325      4.000000
 -0.147104  0.034473  0.136514      4.000000
 -0.071098  0.034473  0.114451      4.000000
  0.004909  0.103420  0.092388      4.000000
  0.080916  0.103420  0.070325      4.000000
 -0.147104  0.103420  0.136514      4.000000
 -0.071098  0.103420  0.114451      4.000000
 


--------------------------------------------------------------------------------------------------------




 Dimension of arrays:
   k-points           NKPTS =     16   k-points in BZ     NKDIM =     16   number of bands    NBANDS=     22
   number of dos      NEDOS =    301   number of ions     NIONS =      8
   non local maximal  LDIM  =      4   non local SUM 2l+1 LMDIM =      8
   total plane-waves  NPLWV =  32400
   max r-space proj   IRMAX =      1   max aug-charges    IRDMAX=  10796
   dimension x,y,z NGX =    30 NGY =   30 NGZ =   36
   dimension x,y,z NGXF=    60 NGYF=   60 NGZF=   72
   support grid    NGXF=    60 NGYF=   60 NGZF=   72
   ions per type =               4   4
   NGX,Y,Z   is equivalent  to a cutoff of  13.10, 13.75, 14.38 a.u.
   NGXF,Y,Z  is equivalent  to a cutoff of  26.20, 27.51, 28.76 a.u.

 SYSTEM =  unknown system                          
 POSCAR =   B  N                                   

 Startparameter for this run:
   NWRITE =      2    write-flag & timer
   PREC   = accura    normal or accurate (medium, high low for compatibility)
   ISTART =      0    job   : 0-new  1-cont  2-samecut
   ICHARG =      2    charge: 1-file 2-atom 10-const
   ISPIN  =      1    spin polarized calculation?
   LNONCOLLINEAR =      F non collinear calculations
   LSORBIT =      F    spin-orbit coupling
   INIWAV =      1    electr: 0-lowe 1-rand  2-diag
   LASPH  =      F    aspherical Exc in radial PAW
 Electronic Relaxation 1
   ENCUT  =  600.0 eV  44.10 Ry    6.64 a.u.   7.60  7.24  8.31*2*pi/ulx,y,z
   ENINI  =  600.0     initial cutoff
   ENAUG  =  627.1 eV  augmentation charge cutoff
   NELM   =     60;   NELMIN=  2; NELMDL= -5     # of ELM steps 
   EDIFF  = 0.1E-05   stopping-criterion for ELM
   LREAL  =      F    real-space projection
   NLSPLINE    = F    spline interpolate recip. space projectors
   LCOMPAT=      F    compatible to vasp.4.4
   GGA_COMPAT  = T    GGA compatible to vasp.4.4-vasp.4.6
   LMAXPAW     = -100 max onsite density
   LMAXMIX     =    2 max onsite mixed and CHGCAR
   VOSKOWN=      0    Vosko Wilk Nusair interpolation
   ROPT   =    0.00000   0.00000
 Ionic relaxation
   EDIFFG = 0.1E-04   stopping-criterion for IOM
   NSW    =    300    number of steps for IOM
   NBLOCK =      1;   KBLOCK =    300    inner block; outer block 
   IBRION =      2    ionic relax: 0-MD 1-quasi-New 2-CG
   NFREE  =      1    steps in history (QN), initial steepest desc. (CG)
   ISIF   =      2    stress and relaxation
   IWAVPR =     11    prediction:  0-non 1-charg 2-wave 3-comb
   ISYM   =      2    0-nonsym 1-usesym 2-fastsym
   LCORR  =      T    Harris-Foulkes like correction to forces

   POTIM  = 0.5000    time-step for ionic-motion
   TEIN   =    0.0    initial temperature
   TEBEG  =    0.0;   TEEND  =   0.0 temperature during run
   SMASS  =  -3.00    Nose mass-parameter (am)
   estimated Nose-frequenzy (Omega)   =  0.10E-29 period in steps = 0.13E+47 mass=  -0.331E-27a.u.
   SCALEE = 1.0000    scale energy and forces
   NPACO  =    256;   APACO  = 16.0  distance and # of slots for P.C.
   PSTRESS=    0.0 pullay stress

  Mass of Ions in am
   POMASS =  10.81 14.00
  Ionic Valenz
   ZVAL   =   3.00  5.00
  Atomic Wigner-Seitz radii
   RWIGS  =  -1.00 -1.00
  virtual crystal weights 
   VCA    =   1.00  1.00
   NELECT =      32.0000    total number of electrons
   NUPDOWN=      -1.0000    fix difference up-down

 DOS related values:
   EMIN   =  10.00;   EMAX   =-10.00  energy-range for DOS
   EFERMI =   0.00
   ISMEAR =     0;   SIGMA  =   0.10  broadening in eV -4-tet -1-fermi 0-gaus

 Electronic relaxation 2 (details)
   IALGO  =     38    algorithm
   LDIAG  =      T    sub-space diagonalisation (order eigenvalues)
   LSUBROT=      F    optimize rotation matrix (better conditioning)
   TURBO    =      0    0=normal 1=particle mesh
   IRESTART =      0    0=no restart 2=restart with 2 vectors
   NREBOOT  =      0    no. of reboots
   NMIN     =      0    reboot dimension
   EREF     =   0.00    reference energy to select bands
   IMIX   =      4    mixing-type and parameters
     AMIX     =   0.40;   BMIX     =  1.00
     AMIX_MAG =   1.60;   BMIX_MAG =  1.00
     AMIN     =   0.10
     WC   =   100.;   INIMIX=   1;  MIXPRE=   1;  MAXMIX= -45

 Intra band minimization:
   WEIMIN = 0.0010     energy-eigenvalue tresh-hold
   EBREAK =  0.11E-07  absolut break condition
   DEPER  =   0.30     relativ break condition  

   TIME   =   0.40     timestep for ELM

  volume/ion in A,a.u.               =       5.96        40.22
  Fermi-wavevector in a.u.,A,eV,Ry     =   1.433387  2.708709 27.954506  2.054598
  Thomas-Fermi vector in A             =   2.552911
 
 Write flags
   LWAVE        =      F    write WAVECAR
   LDOWNSAMPLE  =      F    k-point downsampling of WAVECAR
   LCHARG       =      F    write CHGCAR
   LVTOT        =      F    write LOCPOT, total local potential
   LVHAR        =      F    write LOCPOT, Hartree potential only
   LELF         =      F    write electronic localiz. function (ELF)
   LORBIT       =      0    0 simple, 1 ext, 2 COOP (PROOUT), +10 PAW based schemes


 Dipole corrections
   LMONO  =      F    monopole corrections only (constant potential shift)
   LDIPOL =      F    correct potential (dipole corrections)
   IDIPOL =      0    1-x, 2-y, 3-z, 4-all directions 
   EPSILON=  1.0000000 bulk dielectric constant

 Exchange correlation treatment:
   GGA     =    --    GGA type
   LEXCH   =     8    internal setting for exchange type
   VOSKOWN=      0    Vosko Wilk Nusair interpolation
   LHFCALC =     F    Hartree Fock is set to
   LHFONE  =     F    Hartree Fock one center treatment
   AEXX    =    0.0000 exact exchange contribution

 Linear response parameters
   LEPSILON=     F    determine dielectric tensor
   LRPA    =     F    only Hartree local field effects (RPA)
   LNABLA  =     F    use nabla operator in PAW spheres
   LVEL    =     F    velocity operator in full k-point grid
   LINTERFAST=   F  fast interpolation
   KINTER  =     0    interpolate to denser k-point grid
   CSHIFT  =0.1000    complex shift for real part using Kramers Kronig
   OMEGAMAX=  -1.0    maximum frequency
   DEG_THRESHOLD= 0.2000000E-02 threshold for treating states as degnerate
   RTIME   =   -0.100 relaxation time in fs
  (WPLASMAI=    0.000 imaginary part of plasma frequency in eV, 0.658/RTIME)
   DFIELD  = 0.0000000 0.0000000 0.0000000 field for delta impulse in time
 
 Orbital magnetization related:
   ORBITALMAG=     F  switch on orbital magnetization
   LCHIMAG   =     F  perturbation theory with respect to B field
   DQ        =  0.001000  dq finite difference perturbation B field
   LLRAUG    =     F  two centre corrections for induced B field



--------------------------------------------------------------------------------------------------------


 conjugate gradient relaxation of ions
   using selective dynamics as specified on POSCAR
 charge density and potential will be updated during run
 non-spin polarized calculation
 Variant of blocked Davidson
 Davidson routine will perform the subspace rotation
 perform sub-space diagonalisation
    after iterative eigenvector-optimisation
 modified Broyden-mixing scheme, WC =      100.0
 initial mixing is a Kerker type mixing with AMIX =  0.4000 and BMIX =      1.0000
 Hartree-type preconditioning will be used
 using additional bands            6
 reciprocal scheme for non local part
 use partial core corrections
 calculate Harris-corrections to forces 
   (improved forces if not selfconsistent)
 use gradient corrections 
 use of overlap-Matrix (Vanderbilt PP)
 Gauss-broadening in eV      SIGMA  =   0.10


--------------------------------------------------------------------------------------------------------


  energy-cutoff  :      600.00
  volume of cell :       47.67
      direct lattice vectors                 reciprocal lattice vectors
     3.626002000  0.000000000  1.160320640     0.304026308  0.000000000 -0.088251468
     0.000000000  3.626002000  0.000000000     0.000000000  0.275785838  0.000000000
     1.160320640  0.000000000  3.997304605    -0.088251468  0.000000000  0.275785838

  length of vectors
     3.807129429  3.626002000  4.162305622     0.316575927  0.275785838  0.289561997


 
 k-points in units of 2pi/SCALE and weight: KPOINTS created by Atomic Simulation Env
   0.02697185  0.03447323  0.02344180       0.062
   0.10297843  0.03447323  0.00137893       0.062
  -0.12504130  0.03447323  0.06756753       0.062
  -0.04903472  0.03447323  0.04550466       0.062
   0.02697185  0.10341969  0.02344180       0.062
   0.10297843  0.10341969  0.00137893       0.062
  -0.12504130  0.10341969  0.06756753       0.062
  -0.04903472  0.10341969  0.04550466       0.062
   0.00490899  0.03447323  0.09238826       0.062
   0.08091556  0.03447323  0.07032539       0.062
  -0.14710417  0.03447323  0.13651399       0.062
  -0.07109759  0.03447323  0.11445112       0.062
   0.00490899  0.10341969  0.09238826       0.062
   0.08091556  0.10341969  0.07032539       0.062
  -0.14710417  0.10341969  0.13651399       0.062
  -0.07109759  0.10341969  0.11445112       0.062
 
 k-points in reciprocal lattice and weights: KPOINTS created by Atomic Simulation Env
   0.12500000  0.12500000  0.12500000       0.062
   0.37500000  0.12500000  0.12500000       0.062
  -0.37500000  0.12500000  0.12500000       0.062
  -0.12500000  0.12500000  0.12500000       0.062
   0.12500000  0.37500000  0.12500000       0.062
   0.37500000  0.37500000  0.12500000       0.062
  -0.37500000  0.37500000  0.12500000       0.062
  -0.12500000  0.37500000  0.12500000       0.062
   0.12500000  0.12500000  0.37500000       0.062
   0.37500000  0.12500000  0.37500000       0.062
  -0.37500000  0.12500000  0.37500000       0.062
  -0.12500000  0.12500000  0.37500000       0.062
   0.12500000  0.37500000  0.37500000       0.062
   0.37500000  0.37500000  0.37500000       0.062
  -0.37500000  0.37500000  0.37500000       0.062
  -0.12500000  0.37500000  0.37500000       0.062
 
 position of ions in fractional coordinates (direct lattice) 
   0.12500000  0.12500000  0.12500000
   0.12500000  0.62500000  0.62500000
   0.62500000  0.12500000  0.62500000
   0.62500000  0.62500000  0.12500000
   0.37500000  0.37500000  0.87500000
   0.37500000  0.87500000  0.37500000
   0.87500000  0.37500000  0.37500000
   0.87500000  0.87500000  0.87500000
 
 position of ions in cartesian coordinates  (Angst):
   0.59829033  0.45325025  0.64470316
   1.17845065  2.26625125  2.64335546
   2.99145165  0.45325025  3.22351578
   2.41129133  2.26625125  1.22486348
   2.37503131  1.35975075  3.93276177
   1.79487099  3.17275175  1.93410947
   3.60787199  1.35975075  2.51426979
   4.18803231  3.17275175  4.51292209
 


--------------------------------------------------------------------------------------------------------


 k-point   1 :   0.1250 0.1250 0.1250  plane waves:    1608
 k-point   2 :   0.3750 0.1250 0.1250  plane waves:    1584
 k-point   3 :  -0.3750 0.1250 0.1250  plane waves:    1571
 k-point   4 :  -0.1250 0.1250 0.1250  plane waves:    1592
 k-point   5 :   0.1250 0.3750 0.1250  plane waves:    1592
 k-point   6 :   0.3750 0.3750 0.1250  plane waves:    1597
 k-point   7 :  -0.3750 0.3750 0.1250  plane waves:    1587
 k-point   8 :  -0.1250 0.3750 0.1250  plane waves:    1595
 k-point   9 :   0.1250 0.1250 0.3750  plane waves:    1597
 k-point  10 :   0.3750 0.1250 0.3750  plane waves:    1593
 k-point  11 :  -0.3750 0.1250 0.3750  plane waves:    1586
 k-point  12 :  -0.1250 0.1250 0.3750  plane waves:    1588
 k-point  13 :   0.1250 0.3750 0.3750  plane waves:    1591
 k-point  14 :   0.3750 0.3750 0.3750  plane waves:    1585
 k-point  15 :  -0.3750 0.3750 0.3750  plane waves:    1583
 k-point  16 :  -0.1250 0.3750 0.3750  plane waves:    1578

 maximum and minimum number of plane-waves per node :      1608     1571

 maximum number of plane-waves:      1608
 maximum index in each direction: 
   IXMAX=    7   IYMAX=    7   IZMAX=    8
   IXMIN=   -7   IYMIN=   -7   IZMIN=   -8


 serial   3D FFT for wavefunctions

 total amount of memory used by VASP MPI-rank0    51539. kBytes
=======================================================================

   base      :      30000. kBytes
   nonl-proj :       3499. kBytes
   fftplans  :       4596. kBytes
   grid      :       8712. kBytes
   one-center:         24. kBytes
   wavefun   :       4708. kBytes
 
     INWAV:  cpu time    0.0000: real time    0.0000
 Broyden mixing: mesh for mixing (old mesh)
   NGX = 15   NGY = 15   NGZ = 17
  (NGX  = 60   NGY  = 60   NGZ  = 72)
  gives a total of   3825 points

 initial charge density was supplied:
 charge density of overlapping atoms calculated
 number of electron      32.0000000 magnetization 
 keeping initial charge density in first step


--------------------------------------------------------------------------------------------------------


 Maximum index for augmentation-charges         5122 (set IRDMAX)


--------------------------------------------------------------------------------------------------------


 First call to EWALD:  gamma=   0.489
 Maximum number of real-space cells 3x 3x 3
 Maximum number of reciprocal cells 3x 3x 3

    FEWALD:  cpu time    0.0006: real time    0.0006


--------------------------------------- Iteration      1(   1)  ---------------------------------------


    POTLOK:  cpu time    0.0463: real time    0.0463
    SETDIJ:  cpu time    0.0028: real time    0.0028
     EDDAV:  cpu time    0.3487: real time    0.3487
       DOS:  cpu time    0.0003: real time    0.0003
    --------------------------------------------
      LOOP:  cpu time    0.3981: real time    0.3981

 eigenvalue-minimisations  :   704
 total energy-change (2. order) : 0.1639786E+03  (-0.1915903E+04)
 number of electron      32.0000000 magnetization 
 augmentation part       32.0000000 magnetization 

 Free energy of the ion-electron system (eV)
  ---------------------------------------------------
  alpha Z        PSCENC =       119.42613264
  Ewald energy   TEWEN  =     -1328.48793129
  -Hartree energ DENC   =      -200.89618861
  -exchange      EXHF   =         0.00000000
  -V(xc)+E(xc)   XCENC  =       113.17913197
  PAW double counting   =       993.73038847     -995.07304505
  entropy T*S    EENTRO =        -0.00955478
  eigenvalues    EBANDS =       119.27806703
  atomic energy  EATOM  =      1342.83163313
  Solvation  Ediel_sol  =         0.00000000
  ---------------------------------------------------
  free energy    TOTEN  =       163.97863352 eV

  energy without entropy =      163.98818830  energy(sigma->0) =      163.98341091


--------------------------------------------------------------------------------------------------------




--------------------------------------- Iteration      1(   2)  ---------------------------------------


     EDDAV:  cpu time    0.4699: real time    0.4699
       DOS:  cpu time    0.0003: real time    0.0003
    --------------------------------------------
      LOOP:  cpu time    0.4702: real time    0.4702

 eigenvalue-minimisations  :   930
 total energy-change (2. order) :-0.2083482E+03  (-0.1923453E+03)
 number of electron      32.0000000 magnetization 
 augmentation part       32.0000000 magnetization 

 Free energy of the ion-electron system (eV)
  ---------------------------------------------------
  alpha Z        PSCENC =       119.42613264
  Ewald energy   TEWEN  =     -1328.48793129
  -Hartree energ DENC   =      -200.89618861
  -exchange      EXHF   =         0.00000000
  -V(xc)+E(xc)   XCENC  =       113.17913197
  PAW double counting   =       993.73038847     -995.07304505
  entropy T*S    EENTRO =        -0.00164537
  eigenvalues    EBANDS =       -89.07801338
  atomic energy  EATOM  =      1342.83163313
  Solvation  Ediel_sol  =         0.00000000
  ---------------------------------------------------
  free energy    TOTEN  =       -44.36953749 eV

  energy without entropy =      -44.36789211  energy(sigma->0) =      -44.36871480


--------------------------------------------------------------------------------------------------------




--------------------------------------- Iteration      1(   3)  ---------------------------------------


     EDDAV:  cpu time    0.4601: real time    0.4602
       DOS:  cpu time    0.0004: real time    0.0004
    --------------------------------------------
      LOOP:  cpu time    0.4605: real time    0.4606

 eigenvalue-minimisations  :   888
 total energy-change (2. order) :-0.9789341E+01  (-0.9526053E+01)
 number of electron      32.0000000 magnetization 
 augmentation part       32.0000000 magnetization 

 Free energy of the ion-electron system (eV)
  ---------------------------------------------------
  alpha Z        PSCENC =       119.42613264
  Ewald energy   TEWEN  =     -1328.48793129
  -Hartree energ DENC   =      -200.89618861
  -exchange      EXHF   =         0.00000000
  -V(xc)+E(xc)   XCENC  =       113.17913197
  PAW double counting   =       993.73038847     -995.07304505
  entropy T*S    EENTRO =        -0.00598407
  eigenvalues    EBANDS =       -98.86301590
  atomic energy  EATOM  =      1342.83163313
  Solvation  Ediel_sol  =         0.00000000
  ---------------------------------------------------
  free energy    TOTEN  =       -54.15887871 eV

  energy without entropy =      -54.15289463  energy(sigma->0) =      -54.15588667


--------------------------------------------------------------------------------------------------------




--------------------------------------- Iteration      1(   4)  ---------------------------------------


     EDDAV:  cpu time    0.4392: real time    0.4392
       DOS:  cpu time    0.0003: real time    0.0003
    --------------------------------------------
      LOOP:  cpu time    0.4395: real time    0.4395

 eigenvalue-minimisations  :   830
 total energy-change (2. order) :-0.1452617E+00  (-0.1451033E+00)
 number of electron      32.0000000 magnetization 
 augmentation part       32.0000000 magnetization 

 Free energy of the ion-electron system (eV)
  ---------------------------------------------------
  alpha Z        PSCENC =       119.42613264
  Ewald energy   TEWEN  =     -1328.48793129
  -Hartree energ DENC   =      -200.89618861
  -exchange      EXHF   =         0.00000000
  -V(xc)+E(xc)   XCENC  =       113.17913197
  PAW double counting   =       993.73038847     -995.07304505
  entropy T*S    EENTRO =        -0.00582156
  eigenvalues    EBANDS =       -99.00844011
  atomic energy  EATOM  =      1342.83163313
  Solvation  Ediel_sol  =         0.00000000
  ---------------------------------------------------
  free energy    TOTEN  =       -54.30414039 eV

  energy without entropy =      -54.29831884  energy(sigma->0) =      -54.30122961


--------------------------------------------------------------------------------------------------------




--------------------------------------- Iteration      1(   5)  ---------------------------------------


     EDDAV:  cpu time    0.4686: real time    0.4687
       DOS:  cpu time    0.0004: real time    0.0004
    CHARGE:  cpu time    0.0442: real time    0.0442
    MIXING:  cpu time    0.0016: real time    0.0016
    --------------------------------------------
      LOOP:  cpu time    0.5148: real time    0.5149

 eigenvalue-minimisations  :   902
 total energy-change (2. order) :-0.2675930E-02  (-0.2673941E-02)
 number of electron      31.9999998 magnetization 
 augmentation part        1.3097215 magnetization 

 Broyden mixing:
  rms(total) = 0.19898E+01    rms(broyden)= 0.19897E+01
  rms(prec ) = 0.47832E+01
  weight for this iteration     100.00

 Free energy of the ion-electron system (eV)
  ---------------------------------------------------
  alpha Z        PSCENC =       119.42613264
  Ewald energy   TEWEN  =     -1328.48793129
  -Hartree energ DENC   =      -200.89618861
  -exchange      EXHF   =         0.00000000
  -V(xc)+E(xc)   XCENC  =       113.17913197
  PAW double counting   =       993.73038847     -995.07304505
  entropy T*S    EENTRO =        -0.00585967
  eigenvalues    EBANDS =       -99.01107792
  atomic energy  EATOM  =      1342.83163313
  Solvation  Ediel_sol  =         0.00000000
  ---------------------------------------------------
  free energy    TOTEN  =       -54.30681632 eV

  energy without entropy =      -54.30095665  energy(sigma->0) =      -54.30388648


--------------------------------------------------------------------------------------------------------




--------------------------------------- Iteration      1(   6)  ---------------------------------------


    POTLOK:  cpu time    0.0428: real time    0.0428
    SETDIJ:  cpu time    0.0034: real time    0.0034
     EDDAV:  cpu time    0.4444: real time    0.4444
       DOS:  cpu time    0.0004: real time    0.0004
    CHARGE:  cpu time    0.0461: real time    0.0461
    MIXING:  cpu time    0.0012: real time    0.0012
    --------------------------------------------
      LOOP:  cpu time    0.5382: real time    0.5382

 eigenvalue-minimisations  :   834
 total energy-change (2. order) : 0.8316274E+01  (-0.2433472E+01)
 number of electron      32.0000000 magnetization 
 augmentation part        0.8978341 magnetization 

 Broyden mixing:
  rms(total) = 0.79212E+00    rms(broyden)= 0.79205E+00
  rms(prec ) = 0.12769E+01
  weight for this iteration     100.00

 eigenvalues of (default mixing * dielectric matrix)
  average eigenvalue GAMMA=   0.9864
  0.9864

 Free energy of the ion-electron system (eV)
  ---------------------------------------------------
  alpha Z        PSCENC =       119.42613264
  Ewald energy   TEWEN  =     -1328.48793129
  -Hartree energ DENC   =      -256.88363629
  -exchange      EXHF   =         0.00000000
  -V(xc)+E(xc)   XCENC  =       116.83797809
  PAW double counting   =      1939.01725741    -1941.39229050
  entropy T*S    EENTRO =        -0.00912886
  eigenvalues    EBANDS =       -37.33055687
  atomic energy  EATOM  =      1342.83163313
  Solvation  Ediel_sol  =         0.00000000
  ---------------------------------------------------
  free energy    TOTEN  =       -45.99054254 eV

  energy without entropy =      -45.98141368  energy(sigma->0) =      -45.98597811


--------------------------------------------------------------------------------------------------------




--------------------------------------- Iteration      1(   7)  ---------------------------------------


    POTLOK:  cpu time    0.0430: real time    0.0430
    SETDIJ:  cpu time    0.0035: real time    0.0035
     EDDAV:  cpu time    0.4384: real time    0.4385
       DOS:  cpu time    0.0004: real time    0.0004
    CHARGE:  cpu time    0.0437: real time    0.0437
    MIXING:  cpu time    0.0012: real time    0.0012
    --------------------------------------------
      LOOP:  cpu time    0.5301: real time    0.5302

 eigenvalue-minimisations  :   818
 total energy-change (2. order) : 0.4337329E+00  (-0.1152057E+00)
 number of electron      32.0000000 magnetization 
 augmentation part        0.9166619 magnetization 

 Broyden mixing:
  rms(total) = 0.50558E+00    rms(broyden)= 0.50558E+00
  rms(prec ) = 0.70780E+00
  weight for this iteration     100.00

 eigenvalues of (default mixing * dielectric matrix)
  average eigenvalue GAMMA=   1.7351
  0.9347  2.5354

 Free energy of the ion-electron system (eV)
  ---------------------------------------------------
  alpha Z        PSCENC =       119.42613264
  Ewald energy   TEWEN  =     -1328.48793129
  -Hartree energ DENC   =      -257.23985456
  -exchange      EXHF   =         0.00000000
  -V(xc)+E(xc)   XCENC  =       116.82111733
  PAW double counting   =      2639.66383411    -2642.28884940
  entropy T*S    EENTRO =        -0.00781680
  eigenvalues    EBANDS =       -36.27507485
  atomic energy  EATOM  =      1342.83163313
  Solvation  Ediel_sol  =         0.00000000
  ---------------------------------------------------
  free energy    TOTEN  =       -45.55680968 eV

  energy without entropy =      -45.54899288  energy(sigma->0) =      -45.55290128


--------------------------------------------------------------------------------------------------------




--------------------------------------- Iteration      1(   8)  ---------------------------------------


    POTLOK:  cpu time    0.0418: real time    0.0418
    SETDIJ:  cpu time    0.0034: real time    0.0034
     EDDAV:  cpu time    0.4461: real time    0.4461
       DOS:  cpu time    0.0004: real time    0.0004
    CHARGE:  cpu time    0.0448: real time    0.0448
    MIXING:  cpu time    0.0013: real time    0.0013
    --------------------------------------------
      LOOP:  cpu time    0.5377: real time    0.5377

 eigenvalue-minimisations  :   832
 total energy-change (2. order) : 0.1133379E+00  (-0.5502707E-01)
 number of electron      32.0000000 magnetization 
 augmentation part        0.9215979 magnetization 

 Broyden mixing:
  rms(total) = 0.97497E-01    rms(broyden)= 0.97496E-01
  rms(prec ) = 0.17635E+00
  weight for this iteration     100.00

 eigenvalues of (default mixing * dielectric matrix)
  average eigenvalue GAMMA=   1.4656
  2.2739  1.0614  1.0614

 Free energy of the ion-electron system (eV)
  ---------------------------------------------------
  alpha Z        PSCENC =       119.42613264
  Ewald energy   TEWEN  =     -1328.48793129
  -Hartree energ DENC   =      -262.73318656
  -exchange      EXHF   =         0.00000000
  -V(xc)+E(xc)   XCENC  =       117.17229496
  PAW double counting   =      3883.71916964    -3886.70870274
  entropy T*S    EENTRO =        -0.00752632
  eigenvalues    EBANDS =       -30.65535527
  atomic energy  EATOM  =      1342.83163313
  Solvation  Ediel_sol  =         0.00000000
  ---------------------------------------------------
  free energy    TOTEN  =       -45.44347182 eV

  energy without entropy =      -45.43594549  energy(sigma->0) =      -45.43970865


--------------------------------------------------------------------------------------------------------




--------------------------------------- Iteration      1(   9)  ---------------------------------------


    POTLOK:  cpu time    0.0435: real time    0.0435
    SETDIJ:  cpu time    0.0035: real time    0.0035
     EDDAV:  cpu time    0.4527: real time    0.4528
       DOS:  cpu time    0.0004: real time    0.0004
    CHARGE:  cpu time    0.0434: real time    0.0434
    MIXING:  cpu time    0.0012: real time    0.0012
    --------------------------------------------
      LOOP:  cpu time    0.5447: real time    0.5448

 eigenvalue-minimisations  :   854
 total energy-change (2. order) : 0.4209820E-02  (-0.8503324E-02)
 number of electron      32.0000000 magnetization 
 augmentation part        0.9065582 magnetization 

 Broyden mixing:
  rms(total) = 0.46274E-01    rms(broyden)= 0.46271E-01
  rms(prec ) = 0.67214E-01
  weight for this iteration     100.00

 eigenvalues of (default mixing * dielectric matrix)
  average eigenvalue GAMMA=   1.4501
  2.4170  1.0571  1.0571  1.2693

 Free energy of the ion-electron system (eV)
  ---------------------------------------------------
  alpha Z        PSCENC =       119.42613264
  Ewald energy   TEWEN  =     -1328.48793129
  -Hartree energ DENC   =      -264.06178474
  -exchange      EXHF   =         0.00000000
  -V(xc)+E(xc)   XCENC  =       117.28398705
  PAW double counting   =      4020.39081693    -4023.40178608
  entropy T*S    EENTRO =        -0.00750202
  eigenvalues    EBANDS =       -29.41282762
  atomic energy  EATOM  =      1342.83163313
  Solvation  Ediel_sol  =         0.00000000
  ---------------------------------------------------
  free energy    TOTEN  =       -45.43926200 eV

  energy without entropy =      -45.43175997  energy(sigma->0) =      -45.43551098


--------------------------------------------------------------------------------------------------------




--------------------------------------- Iteration      1(  10)  ---------------------------------------


    POTLOK:  cpu time    0.0421: real time    0.0421
    SETDIJ:  cpu time    0.0034: real time    0.0034
     EDDAV:  cpu time    0.4575: real time    0.4580
       DOS:  cpu time    0.0004: real time    0.0004
    CHARGE:  cpu time    0.0439: real time    0.0439
    MIXING:  cpu time    0.0012: real time    0.0012
    --------------------------------------------
      LOOP:  cpu time    0.5485: real time    0.5489

 eigenvalue-minimisations  :   848
 total energy-change (2. order) : 0.1873276E-03  (-0.3039319E-03)
 number of electron      32.0000000 magnetization 
 augmentation part        0.9078664 magnetization 

 Broyden mixing:
  rms(total) = 0.13334E-01    rms(broyden)= 0.13334E-01
  rms(prec ) = 0.19598E-01
  weight for this iteration     100.00

 eigenvalues of (default mixing * dielectric matrix)
  average eigenvalue GAMMA=   1.5069
  2.5019  1.7483  1.3772  0.9536  0.9536

 Free energy of the ion-electron system (eV)
  ---------------------------------------------------
  alpha Z        PSCENC =       119.42613264
  Ewald energy   TEWEN  =     -1328.48793129
  -Hartree energ DENC   =      -264.03386651
  -exchange      EXHF   =         0.00000000
  -V(xc)+E(xc)   XCENC  =       117.29111444
  PAW double counting   =      4146.47584484    -4149.49832611
  entropy T*S    EENTRO =        -0.00756371
  eigenvalues    EBANDS =       -29.43611211
  atomic energy  EATOM  =      1342.83163313
  Solvation  Ediel_sol  =         0.00000000
  ---------------------------------------------------
  free energy    TOTEN  =       -45.43907467 eV

  energy without entropy =      -45.43151096  energy(sigma->0) =      -45.43529282


--------------------------------------------------------------------------------------------------------




--------------------------------------- Iteration      1(  11)  ---------------------------------------


    POTLOK:  cpu time    0.0437: real time    0.0437
    SETDIJ:  cpu time    0.0035: real time    0.0035
     EDDAV:  cpu time    0.4563: real time    0.4565
       DOS:  cpu time    0.0003: real time    0.0003
    CHARGE:  cpu time    0.0432: real time    0.0432
    MIXING:  cpu time    0.0013: real time    0.0013
    --------------------------------------------
      LOOP:  cpu time    0.5483: real time    0.5485

 eigenvalue-minimisations  :   856
 total energy-change (2. order) :-0.3245354E-04  (-0.7655340E-04)
 number of electron      32.0000000 magnetization 
 augmentation part        0.9092959 magnetization 

 Broyden mixing:
  rms(total) = 0.75352E-02    rms(broyden)= 0.75348E-02
  rms(prec ) = 0.11880E-01
  weight for this iteration     100.00

 eigenvalues of (default mixing * dielectric matrix)
  average eigenvalue GAMMA=   1.5894
  2.6032  2.4044  1.6156  1.0009  1.0009  0.9114

 Free energy of the ion-electron system (eV)
  ---------------------------------------------------
  alpha Z        PSCENC =       119.42613264
  Ewald energy   TEWEN  =     -1328.48793129
  -Hartree energ DENC   =      -263.83205261
  -exchange      EXHF   =         0.00000000
  -V(xc)+E(xc)   XCENC  =       117.28072805
  PAW double counting   =      4159.11172186    -4162.12724294
  entropy T*S    EENTRO =        -0.00757746
  eigenvalues    EBANDS =       -29.63451850
  atomic energy  EATOM  =      1342.83163313
  Solvation  Ediel_sol  =         0.00000000
  ---------------------------------------------------
  free energy    TOTEN  =       -45.43910712 eV

  energy without entropy =      -45.43152966  energy(sigma->0) =      -45.43531839


--------------------------------------------------------------------------------------------------------




--------------------------------------- Iteration      1(  12)  ---------------------------------------


    POTLOK:  cpu time    0.0415: real time    0.0415
    SETDIJ:  cpu time    0.0034: real time    0.0034
     EDDAV:  cpu time    0.4567: real time    0.4568
       DOS:  cpu time    0.0004: real time    0.0004
    CHARGE:  cpu time    0.0434: real time    0.0434
    MIXING:  cpu time    0.0013: real time    0.0013
    --------------------------------------------
      LOOP:  cpu time    0.5467: real time    0.5467

 eigenvalue-minimisations  :   866
 total energy-change (2. order) : 0.2380771E-04  (-0.9862449E-05)
 number of electron      32.0000000 magnetization 
 augmentation part        0.9088132 magnetization 

 Broyden mixing:
  rms(total) = 0.14187E-02    rms(broyden)= 0.14187E-02
  rms(prec ) = 0.26048E-02
  weight for this iteration     100.00

 eigenvalues of (default mixing * dielectric matrix)
  average eigenvalue GAMMA=   1.5336
  2.5852  2.3891  1.7744  1.0487  1.0487  1.0131  0.8760

 Free energy of the ion-electron system (eV)
  ---------------------------------------------------
  alpha Z        PSCENC =       119.42613264
  Ewald energy   TEWEN  =     -1328.48793129
  -Hartree energ DENC   =      -263.91145496
  -exchange      EXHF   =         0.00000000
  -V(xc)+E(xc)   XCENC  =       117.28743422
  PAW double counting   =      4154.20157230    -4157.21307474
  entropy T*S    EENTRO =        -0.00756948
  eigenvalues    EBANDS =       -29.56582515
  atomic energy  EATOM  =      1342.83163313
  Solvation  Ediel_sol  =         0.00000000
  ---------------------------------------------------
  free energy    TOTEN  =       -45.43908331 eV

  energy without entropy =      -45.43151383  energy(sigma->0) =      -45.43529857


--------------------------------------------------------------------------------------------------------




--------------------------------------- Iteration      1(  13)  ---------------------------------------


    POTLOK:  cpu time    0.0418: real time    0.0418
    SETDIJ:  cpu time    0.0034: real time    0.0034
     EDDAV:  cpu time    0.4713: real time    0.4715
       DOS:  cpu time    0.0003: real time    0.0003
    CHARGE:  cpu time    0.0431: real time    0.0431
    MIXING:  cpu time    0.0013: real time    0.0013
    --------------------------------------------
      LOOP:  cpu time    0.5613: real time    0.5614

 eigenvalue-minimisations  :   912
 total energy-change (2. order) : 0.1356353E-05  (-0.1577361E-05)
 number of electron      32.0000000 magnetization 
 augmentation part        0.9086379 magnetization 

 Broyden mixing:
  rms(total) = 0.54579E-03    rms(broyden)= 0.54570E-03
  rms(prec ) = 0.74747E-03
  weight for this iteration     100.00

 eigenvalues of (default mixing * dielectric matrix)
  average eigenvalue GAMMA=   1.6377
  2.7975  2.2918  2.2528  1.7503  0.9337  1.0031  1.0360  1.0360

 Free energy of the ion-electron system (eV)
  ---------------------------------------------------
  alpha Z        PSCENC =       119.42613264
  Ewald energy   TEWEN  =     -1328.48793129
  -Hartree energ DENC   =      -263.94391251
  -exchange      EXHF   =         0.00000000
  -V(xc)+E(xc)   XCENC  =       117.28955417
  PAW double counting   =      4152.89646733    -4155.90810457
  entropy T*S    EENTRO =        -0.00756691
  eigenvalues    EBANDS =       -29.53535395
  atomic energy  EATOM  =      1342.83163313
  Solvation  Ediel_sol  =         0.00000000
  ---------------------------------------------------
  free energy    TOTEN  =       -45.43908196 eV

  energy without entropy =      -45.43151504  energy(sigma->0) =      -45.43529850


--------------------------------------------------------------------------------------------------------




--------------------------------------- Iteration      1(  14)  ---------------------------------------


    POTLOK:  cpu time    0.0418: real time    0.0418
    SETDIJ:  cpu time    0.0034: real time    0.0034
     EDDAV:  cpu time    0.3463: real time    0.3463
       DOS:  cpu time    0.0004: real time    0.0004
    --------------------------------------------
      LOOP:  cpu time    0.3918: real time    0.3918

 eigenvalue-minimisations  :   556
 total energy-change (2. order) : 0.2015101E-06  (-0.3918782E-07)
 number of electron      32.0000000 magnetization 
 augmentation part        0.9086379 magnetization 

 Free energy of the ion-electron system (eV)
  ---------------------------------------------------
  alpha Z        PSCENC =       119.42613264
  Ewald energy   TEWEN  =     -1328.48793129
  -Hartree energ DENC   =      -263.94197917
  -exchange      EXHF   =         0.00000000
  -V(xc)+E(xc)   XCENC  =       117.28943853
  PAW double counting   =      4152.83311366    -4155.84478937
  entropy T*S    EENTRO =        -0.00756650
  eigenvalues    EBANDS =       -29.53713340
  atomic energy  EATOM  =      1342.83163313
  Solvation  Ediel_sol  =         0.00000000
  ---------------------------------------------------
  free energy    TOTEN  =       -45.43908176 eV

  energy without entropy =      -45.43151526  energy(sigma->0) =      -45.43529851


--------------------------------------------------------------------------------------------------------




 average (electrostatic) potential at core
  the test charge radii are     0.7672  0.7089
  (the norm of the test charge is              1.0000)
       1 -25.6019       2 -25.6019       3 -25.6019       4 -25.6019       5 -61.1114
       6 -61.1114       7 -61.1114       8 -61.1114
 
 
 
 E-fermi :   9.1471     XC(G=0): -12.7231     alpha+bet :-16.6022

 Fermi energy:         9.1470696159

 k-point     1 :       0.1250    0.1250    0.1250
  band No.  band energies     occupation 
      1     -14.2781      2.00000
      2     -11.6409      2.00000
      3      -8.2712      2.00000
      4      -7.6019      2.00000
      5      -3.7454      2.00000
      6      -3.2639      2.00000
      7      -2.4477      2.00000
      8      -1.1048      2.00000
      9       1.7448      2.00000
     10       3.2749      2.00000
     11       4.0879      2.00000
     12       4.5907      2.00000
     13       4.7384      2.00000
     14       5.4287      2.00000
     15       6.8722      2.00000
     16       7.1278      2.00000
     17       9.7045      0.00000
     18      10.3773      0.00000
     19      11.9666      0.00000
     20      12.0436      0.00000
     21      14.0710      0.00000
     22      15.5332      0.00000

 k-point     2 :       0.3750    0.1250    0.1250
  band No.  band energies     occupation 
      1     -13.4608      2.00000
      2     -11.6261      2.00000
      3      -9.9232      2.00000
      4      -8.8637      2.00000
      5      -2.2556      2.00000
      6      -2.2128      2.00000
      7      -0.8855      2.00000
      8       0.1176      2.00000
      9       0.3462      2.00000
     10       2.0673      2.00000
     11       3.3716      2.00000
     12       3.6983      2.00000
     13       3.7696      2.00000
     14       5.6573      2.00000
     15       7.3107      2.00000
     16       8.1829      2.00000
     17       9.1794      0.64784
     18       9.8826      0.00000
     19      12.5910      0.00000
     20      13.5510      0.00000
     21      14.1778      0.00000
     22      14.4311      0.00000

 k-point     3 :      -0.3750    0.1250    0.1250
  band No.  band energies     occupation 
      1     -12.4022      2.00000
      2     -11.5989      2.00000
      3     -11.0039      2.00000
      4     -10.1717      2.00000
      5      -0.9841      2.00000
      6      -0.7243      2.00000
      7       0.0557      2.00000
      8       0.5347      2.00000
      9       1.5460      2.00000
     10       1.8267      2.00000
     11       2.4276      2.00000
     12       3.5504      2.00000
     13       3.9798      2.00000
     14       4.0526      2.00000
     15       5.4596      2.00000
     16       6.3816      2.00000
     17       9.7078      0.00000
     18      10.2034      0.00000
     19      12.1790      0.00000
     20      12.3270      0.00000
     21      13.4438      0.00000
     22      15.7475      0.00000

 k-point     4 :      -0.1250    0.1250    0.1250
  band No.  band energies     occupation 
      1     -13.9212      2.00000
      2     -11.1408      2.00000
      3      -9.6881      2.00000
      4      -9.0623      2.00000
      5      -1.7606      2.00000
      6      -1.5491      2.00000
      7      -1.4010      2.00000
      8      -1.2454      2.00000
      9       2.2433      2.00000
     10       2.8805      2.00000
     11       3.0482      2.00000
     12       4.1388      2.00000
     13       4.5603      2.00000
     14       4.8957      2.00000
     15       6.5580      2.00000
     16       6.6404      2.00000
     17       7.9442      2.00000
     18       9.5423      0.00000
     19      11.6577      0.00000
     20      13.5596      0.00000
     21      14.2914      0.00000
     22      14.8388      0.00000

 k-point     5 :       0.1250    0.3750    0.1250
  band No.  band energies     occupation 
      1     -13.5940      2.00000
      2     -12.5055      2.00000
      3      -7.9853      2.00000
      4      -7.6965      2.00000
      5      -3.5988      2.00000
      6      -3.4052      2.00000
      7      -2.2843      2.00000
      8      -0.7563      2.00000
      9       0.5730      2.00000
     10       2.8139      2.00000
     11       2.8204      2.00000
     12       3.1140      2.00000
     13       4.7313      2.00000
     14       5.0646      2.00000
     15       8.8305      1.99999
     16       9.0537      1.81345
     17       9.9169      0.00000
     18      10.2030      0.00000
     19      13.7658      0.00000
     20      15.0403      0.00000
     21      15.4003      0.00000
     22      15.7838      0.00000

 k-point     6 :       0.3750    0.3750    0.1250
  band No.  band energies     occupation 
      1     -12.8968      2.00000
      2     -12.1103      2.00000
      3      -9.5363      2.00000
      4      -9.0778      2.00000
      5      -3.0043      2.00000
      6      -2.0513      2.00000
      7      -1.9982      2.00000
      8      -1.4948      2.00000
      9       1.4054      2.00000
     10       1.9683      2.00000
     11       2.6163      2.00000
     12       4.7446      2.00000
     13       5.4197      2.00000
     14       6.2252      2.00000
     15       7.6359      2.00000
     16       7.6584      2.00000
     17       9.8591      0.00000
     18      10.1868      0.00000
     19      13.4596      0.00000
     20      13.9590      0.00000
     21      15.1453      0.00000
     22      16.2571      0.00000

 k-point     7 :      -0.3750    0.3750    0.1250
  band No.  band energies     occupation 
      1     -11.7889      2.00000
      2     -11.2915      2.00000
      3     -11.0288      2.00000
      4     -10.8561      2.00000
      5      -2.1365      2.00000
      6      -1.8161      2.00000
      7      -1.2071      2.00000
      8      -0.0654      2.00000
      9       2.1813      2.00000
     10       2.9514      2.00000
     11       3.3372      2.00000
     12       3.5525      2.00000
     13       4.1849      2.00000
     14       5.3981      2.00000
     15       5.4503      2.00000
     16       6.2917      2.00000
     17      11.1942      0.00000
     18      11.1964      0.00000
     19      11.5153      0.00000
     20      12.0661      0.00000
     21      15.8551      0.00000
     22      16.9421      0.00000

 k-point     8 :      -0.1250    0.3750    0.1250
  band No.  band energies     occupation 
      1     -13.2222      2.00000
      2     -12.0861      2.00000
      3      -9.3972      2.00000
      4      -9.1247      2.00000
      5      -1.8038      2.00000
      6      -1.7148      2.00000
      7      -0.8582      2.00000
      8      -0.1629      2.00000
      9       0.7378      2.00000
     10       1.3667      2.00000
     11       1.5437      2.00000
     12       1.9833      2.00000
     13       5.4839      2.00000
     14       5.8687      2.00000
     15       7.6805      2.00000
     16       7.8273      2.00000
     17       9.3198      0.01460
     18      10.2210      0.00000
     19      13.7320      0.00000
     20      13.9771      0.00000
     21      15.4124      0.00000
     22      15.8294      0.00000

 k-point     9 :       0.1250    0.1250    0.3750
  band No.  band energies     occupation 
      1     -13.6155      2.00000
      2     -11.4595      2.00000
      3     -10.3418      2.00000
      4      -8.4176      2.00000
      5      -2.2147      2.00000
      6      -1.9503      2.00000
      7      -1.1324      2.00000
      8      -0.2098      2.00000
      9       0.9087      2.00000
     10       2.1580      2.00000
     11       3.1189      2.00000
     12       4.1608      2.00000
     13       4.3779      2.00000
     14       6.1454      2.00000
     15       7.4931      2.00000
     16       7.6028      2.00000
     17       8.8260      1.99999
     18       9.4234      0.00009
     19      12.4651      0.00000
     20      12.4957      0.00000
     21      13.7939      0.00000
     22      14.4408      0.00000

 k-point    10 :       0.3750    0.1250    0.3750
  band No.  band energies     occupation 
      1     -13.5394      2.00000
      2     -12.4245      2.00000
      3      -8.2311      2.00000
      4      -7.9623      2.00000
      5      -3.4424      2.00000
      6      -3.2558      2.00000
      7      -2.6434      2.00000
      8      -1.1168      2.00000
      9       0.4699      2.00000
     10       2.6427      2.00000
     11       3.5203      2.00000
     12       3.8160      2.00000
     13       5.5218      2.00000
     14       5.7184      2.00000
     15       9.5507      0.00000
     16       9.8641      0.00000
     17       9.9037      0.00000
     18      10.1934      0.00000
     19      12.5943      0.00000
     20      13.8106      0.00000
     21      15.1296      0.00000
     22      15.3792      0.00000

 k-point    11 :      -0.3750    0.1250    0.3750
  band No.  band energies     occupation 
      1     -12.6775      2.00000
      2     -12.4415      2.00000
      3     -10.4423      2.00000
      4      -8.3594      2.00000
      5      -2.2694      2.00000
      6      -1.7449      2.00000
      7      -1.4363      2.00000
      8      -0.7594      2.00000
      9       1.5017      2.00000
     10       1.9573      2.00000
     11       2.3217      2.00000
     12       2.9384      2.00000
     13       4.6543      2.00000
     14       6.9291      2.00000
     15       7.6543      2.00000
     16       8.1855      2.00000
     17      11.0160      0.00000
     18      11.0562      0.00000
     19      11.2726      0.00000
     20      11.6698      0.00000
     21      13.8381      0.00000
     22      17.1564      0.00000

 k-point    12 :      -0.1250    0.1250    0.3750
  band No.  band energies     occupation 
      1     -12.5594      2.00000
      2     -12.0021      2.00000
      3     -10.5812      2.00000
      4     -10.0044      2.00000
      5      -0.9780      2.00000
      6      -0.8331      2.00000
      7       0.2471      2.00000
      8       0.7676      2.00000
      9       1.0821      2.00000
     10       2.2140      2.00000
     11       2.8494      2.00000
     12       3.7234      2.00000
     13       4.4424      2.00000
     14       4.6604      2.00000
     15       5.2765      2.00000
     16       6.0218      2.00000
     17       9.0967      1.52403
     18       9.6629      0.00000
     19      11.3851      0.00000
     20      11.6684      0.00000
     21      13.1621      0.00000
     22      15.7810      0.00000

 k-point    13 :       0.1250    0.3750    0.3750
  band No.  band energies     occupation 
      1     -13.0015      2.00000
      2     -12.0907      2.00000
      3      -9.7946      2.00000
      4      -8.9872      2.00000
      5      -2.6777      2.00000
      6      -1.7846      2.00000
      7      -1.4890      2.00000
      8      -1.4068      2.00000
      9       2.0457      2.00000
     10       2.0685      2.00000
     11       2.9386      2.00000
     12       4.2712      2.00000
     13       4.3569      2.00000
     14       5.5784      2.00000
     15       7.7190      2.00000
     16       7.8533      2.00000
     17       9.7438      0.00000
     18       9.9571      0.00000
     19      12.5075      0.00000
     20      12.7978      0.00000
     21      15.5354      0.00000
     22      15.8426      0.00000

 k-point    14 :       0.3750    0.3750    0.3750
  band No.  band energies     occupation 
      1     -13.1004      2.00000
      2     -12.6089      2.00000
      3      -8.0054      2.00000
      4      -7.8857      2.00000
      5      -3.8793      2.00000
      6      -3.5984      2.00000
      7      -3.5427      2.00000
      8      -3.2673      2.00000
      9       3.2202      2.00000
     10       3.2582      2.00000
     11       3.3557      2.00000
     12       4.9869      2.00000
     13       5.8307      2.00000
     14       6.0061      2.00000
     15       8.6743      2.00000
     16       9.6760      0.00000
     17      10.0181      0.00000
     18      10.1312      0.00000
     19      12.3694      0.00000
     20      12.9289      0.00000
     21      15.3094      0.00000
     22      15.5031      0.00000

 k-point    15 :      -0.3750    0.3750    0.3750
  band No.  band energies     occupation 
      1     -12.4433      2.00000
      2     -12.3380      2.00000
      3      -9.8693      2.00000
      4      -9.0006      2.00000
      5      -3.4250      2.00000
      6      -3.2975      2.00000
      7      -1.9585      2.00000
      8      -1.3062      2.00000
      9       2.5254      2.00000
     10       3.4432      2.00000
     11       4.0760      2.00000
     12       4.3627      2.00000
     13       4.7301      2.00000
     14       5.6489      2.00000
     15       7.6289      2.00000
     16       7.9557      2.00000
     17      10.2800      0.00000
     18      10.4170      0.00000
     19      12.2673      0.00000
     20      12.5945      0.00000
     21      14.8587      0.00000
     22      16.2125      0.00000

 k-point    16 :      -0.1250    0.3750    0.3750
  band No.  band energies     occupation 
      1     -11.9000      2.00000
      2     -11.5219      2.00000
      3     -10.9072      2.00000
      4     -10.8490      2.00000
      5      -1.9396      2.00000
      6      -1.2125      2.00000
      7      -0.5008      2.00000
      8       0.7435      2.00000
      9       1.4856      2.00000
     10       2.7673      2.00000
     11       3.2445      2.00000
     12       3.2945      2.00000
     13       4.1599      2.00000
     14       4.8686      2.00000
     15       5.1987      2.00000
     16       6.1705      2.00000
     17      10.8407      0.00000
     18      11.0938      0.00000
     19      11.1075      0.00000
     20      11.8169      0.00000
     21      15.9143      0.00000
     22      16.9436      0.00000


--------------------------------------------------------------------------------------------------------


 soft charge-density along one line, spin component           1
         0         1         2         3         4         5         6         7         8         9
 total charge-density along one line
 
 pseudopotential strength for first ion, spin component:           1
  6.194   9.411   0.009  -0.000  -0.000   0.012  -0.000  -0.000
  9.411  14.292   0.014  -0.000  -0.000   0.017  -0.000  -0.000
  0.009   0.014  -2.040  -0.000   0.000  -3.436  -0.000   0.000
 -0.000  -0.000  -0.000  -2.038   0.007  -0.000  -3.431   0.015
 -0.000  -0.000   0.000   0.007  -2.037   0.000   0.015  -3.428
  0.012   0.017  -3.436  -0.000   0.000  -5.583  -0.000   0.000
 -0.000  -0.000  -0.000  -3.431   0.015  -0.000  -5.571   0.033
 -0.000  -0.000   0.000   0.015  -3.428   0.000   0.033  -5.566
 total augmentation occupancy for first ion, spin component:           1
  4.631  -1.447   2.533   0.000   0.000  -0.946   0.000   0.000
 -1.447   0.520  -0.941   0.000   0.000   0.352   0.000   0.000
  2.533  -0.941   4.795  -0.000  -0.000  -1.426   0.000   0.000
  0.000   0.000   0.000   4.314  -1.750   0.000  -1.305   0.580
  0.000   0.000   0.000  -1.750   3.767   0.000   0.580  -1.119
 -0.946   0.352  -1.426   0.000   0.000   0.465   0.000  -0.000
  0.000   0.000   0.000  -1.305   0.580   0.000   0.422  -0.207
  0.000   0.000   0.000   0.580  -1.119  -0.000  -0.207   0.355


------------------------ aborting loop because EDIFF is reached ----------------------------------------


    CHARGE:  cpu time    0.0432: real time    0.0432
    FORLOC:  cpu time    0.0043: real time    0.0043
    FORNL :  cpu time    0.0855: real time    0.0855
    STRESS:  cpu time    0.2747: real time    0.2748
    FORCOR:  cpu time    0.0408: real time    0.0408
    FORHAR:  cpu time    0.0107: real time    0.0107
    MIXING:  cpu time    0.0013: real time    0.0013
    OFIELD:  cpu time    0.0000: real time    0.0000

  FORCE on cell =-STRESS in cart. coord.  units (eV):
  Direction    XX          YY          ZZ          XY          YZ          ZX
  --------------------------------------------------------------------------------------
  Alpha Z   119.42613   119.42613   119.42613
  Ewald    -480.24858  -473.21797  -375.02389    -0.00000     0.00000  -331.72234
  Hartree    96.02765    44.79864   123.10687    -0.00000    -0.00000   -96.24044
  E(xc)    -130.49471  -130.63431  -130.22385    -0.00000     0.00000    -0.35666
  Local     -89.97122   -23.79902  -209.04868     0.00000     0.00000   382.12357
  n-local   -58.65456   -60.49373   -57.40994     1.18718    -0.04077     2.53897
  augment     4.17958     3.97199     3.91224     0.00000     0.00000     0.08648
  Kinetic   580.46449   551.92794   560.01992    -3.25891    -5.63399   -11.54624
  Fock        0.00000     0.00000     0.00000     0.00000     0.00000     0.00000
  -------------------------------------------------------------------------------------
  Total      40.72879    31.97968    34.75881     0.00000     0.00000   -55.11667
  in kB    1368.76223  1074.73305  1168.13041     0.00000     0.00000 -1852.29184
  external pressure =     1203.88 kB  Pullay stress =        0.00 kB


 VOLUME and BASIS-vectors are now :
 -----------------------------------------------------------------------------
  energy-cutoff  :      600.00
  volume of cell :       47.67
      direct lattice vectors                 reciprocal lattice vectors
     3.626002000  0.000000000  1.160320640     0.304026308  0.000000000 -0.088251468
     0.000000000  3.626002000  0.000000000     0.000000000  0.275785838  0.000000000
     1.160320640  0.000000000  3.997304605    -0.088251468  0.000000000  0.275785838

  length of vectors
     3.807129429  3.626002000  4.162305622     0.316575927  0.275785838  0.289561997


 FORCES acting on ions
    electron-ion (+dipol)            ewald-force                    non-local-force                 convergence-correction
 -----------------------------------------------------------------------------------------------
   0.512E-07 0.102E+03 0.141E-06   -.533E-14 -.106E+03 -.711E-14   -.615E-17 -.369E+01 0.319E-17   -.526E-14 0.589E-03 -.487E-14
   0.512E-07 0.102E+03 0.141E-06   -.711E-14 -.106E+03 -.711E-14   0.109E-17 -.369E+01 0.514E-17   -.707E-14 0.589E-03 0.423E-15
   0.512E-07 0.102E+03 0.141E-06   -.888E-14 -.106E+03 -.711E-14   0.885E-17 -.369E+01 0.558E-17   -.305E-14 0.589E-03 -.156E-14
   0.512E-07 0.102E+03 0.141E-06   -.711E-14 -.106E+03 -.711E-14   -.624E-17 -.369E+01 0.484E-17   -.747E-15 0.589E-03 -.635E-14
   0.247E-08 -.759E+02 0.508E-07   0.149E-14 0.106E+03 0.105E-13   0.868E-18 -.223E+02 -.947E-17   0.129E-13 0.646E-03 -.399E-14
   0.247E-08 -.759E+02 0.508E-07   0.471E-14 0.106E+03 0.867E-14   -.223E-16 -.223E+02 -.743E-18   0.133E-13 0.646E-03 -.211E-14
   0.247E-08 -.759E+02 0.508E-07   0.126E-13 0.106E+03 0.354E-14   -.205E-16 -.223E+02 0.201E-17   -.164E-13 0.646E-03 -.146E-13
   0.247E-08 -.759E+02 0.508E-07   0.106E-13 0.106E+03 0.630E-14   0.238E-16 -.223E+02 0.103E-16   -.150E-13 0.646E-03 -.157E-13
 -----------------------------------------------------------------------------------------------
   0.215E-06 0.104E+03 0.765E-06   0.105E-14 0.284E-13 0.586E-15   -.206E-16 -.104E+03 0.208E-16   -.214E-13 0.494E-02 -.488E-13
 
 
 POSITION                                       TOTAL-FORCE (eV/Angst)
 -----------------------------------------------------------------------------------
      0.59829      0.45325      0.64470         0.000000     -7.782194     -0.000000
      1.17845      2.26625      2.64336        -0.000000     -7.782194      0.000000
      2.99145      0.45325      3.22352        -0.000000     -7.782194      0.000000
      2.41129      2.26625      1.22486         0.000000     -7.782194     -0.000000
      2.37503      1.35975      3.93276         0.000000      7.782194      0.000000
      1.79487      3.17275      1.93411         0.000000      7.782194     -0.000000
      3.60787      1.35975      2.51427        -0.000000      7.782194     -0.000000
      4.18803      3.17275      4.51292         0.000000      7.782194      0.000000
 -----------------------------------------------------------------------------------
    total drift:                                0.000000     -0.000746      0.000001


--------------------------------------------------------------------------------------------------------



  FREE ENERGIE OF THE ION-ELECTRON SYSTEM (eV)
  ---------------------------------------------------
  free  energy   TOTEN  =       -45.43908176 eV

  energy  without entropy=      -45.43151526  energy(sigma->0) =      -45.43529851
 


--------------------------------------------------------------------------------------------------------


    POTLOK:  cpu time    0.0419: real time    0.0419


--------------------------------------------------------------------------------------------------------




--------------------------------------------------------------------------------------------------------


    WAVPRE:  cpu time    0.0127: real time    0.0127
    FEWALD:  cpu time    0.0001: real time    0.0001
    ORTHCH:  cpu time    0.0157: real time    0.0157
     LOOP+:  cpu time    7.5675: real time    7.5688


--------------------------------------- Iteration      2(   1)  ---------------------------------------


    POTLOK:  cpu time    0.0410: real time    0.0411
    SETDIJ:  cpu time    0.0033: real time    0.0033
     EDDAV:  cpu time    0.4045: real time    0.4045
       DOS:  cpu time    0.0004: real time    0.0004
    CHARGE:  cpu time    0.0443: real time    0.0443
    MIXING:  cpu time    0.0011: real time    0.0011
    --------------------------------------------
      LOOP:  cpu time    0.4946: real time    0.4946

 eigenvalue-minimisations  :   710
 total energy-change (2. order) : 0.1292985E+02  (-0.2380665E+03)
 number of electron      31.9999998 magnetization 
 augmentation part        0.3447712 magnetization 

 Broyden mixing:
  rms(total) = 0.43222E+01    rms(broyden)= 0.43222E+01
  rms(prec ) = 0.57678E+01
  weight for this iteration     100.00

 Free energy of the ion-electron system (eV)
  ---------------------------------------------------
  alpha Z        PSCENC =       119.42613264
  Ewald energy   TEWEN  =     -1496.09954833
  -Hartree energ DENC   =      -166.28109840
  -exchange      EXHF   =         0.00000000
  -V(xc)+E(xc)   XCENC  =       112.47035902
  PAW double counting   =      4152.80140991    -4155.81310868
  entropy T*S    EENTRO =        -0.00449009
  eigenvalues    EBANDS =        58.15948093
  atomic energy  EATOM  =      1342.83163313
  Solvation  Ediel_sol  =         0.00000000
  ---------------------------------------------------
  free energy    TOTEN  =       -32.50922987 eV

  energy without entropy =      -32.50473978  energy(sigma->0) =      -32.50698482


--------------------------------------------------------------------------------------------------------




--------------------------------------- Iteration      2(   2)  ---------------------------------------


    POTLOK:  cpu time    0.0426: real time    0.0426
    SETDIJ:  cpu time    0.0035: real time    0.0035
     EDDAV:  cpu time    0.4956: real time    0.4957
       DOS:  cpu time    0.0003: real time    0.0003
    CHARGE:  cpu time    0.0442: real time    0.0442
    MIXING:  cpu time    0.0013: real time    0.0013
    --------------------------------------------
      LOOP:  cpu time    0.5876: real time    0.5877

[...]
      5      -0.5517      2.00000
      6      -0.3171      2.00000
      7       0.5646      2.00000
      8       1.1625      2.00000
      9       2.5820      2.00000
     10       2.9089      2.00000
     11       3.5660      2.00000
     12       4.6529      2.00000
     13       4.9489      2.00000
     14       5.2845      2.00000
     15       6.5690      2.00000
     16       6.9079      2.00000
     17       8.5316      2.00000
     18      10.5127      0.00000
     19      11.7927      0.00000
     20      12.7472      0.00000
     21      14.4475      0.00000
     22      15.6024      0.00000

 k-point     4 :      -0.1250    0.1250    0.1250
  band No.  band energies     occupation 
      1     -13.0622      2.00000
      2      -9.6704      2.00000
      3      -8.1306      2.00000
      4      -7.3108      2.00000
      5      -1.2786      2.00000
      6      -0.9847      2.00000
      7       0.2449      2.00000
      8       0.8201      2.00000
      9       2.2714      2.00000
     10       2.9080      2.00000
     11       3.2946      2.00000
     12       4.1768      2.00000
     13       4.8323      2.00000
     14       5.1546      2.00000
     15       5.6559      2.00000
     16       7.8705      2.00000
     17       9.8903      1.99271
     18      11.4155      0.00000
     19      12.0853      0.00000
     20      12.4126      0.00000
     21      13.0641      0.00000
     22      15.6901      0.00000

 k-point     5 :       0.1250    0.3750    0.1250
  band No.  band energies     occupation 
      1     -12.6724      2.00000
      2     -11.3683      2.00000
      3      -5.8242      2.00000
      4      -5.3908      2.00000
      5      -2.1419      2.00000
      6      -2.0910      2.00000
      7      -1.8220      2.00000
      8      -0.5386      2.00000
      9       0.9524      2.00000
     10       2.5519      2.00000
     11       2.9114      2.00000
     12       3.1298      2.00000
     13       4.6910      2.00000
     14       5.1346      2.00000
     15       8.0526      2.00000
     16       9.3257      2.00000
     17      12.6089      0.00000
     18      12.9754      0.00000
     19      13.7800      0.00000
     20      14.8914      0.00000
     21      15.5866      0.00000
     22      15.9647      0.00000

 k-point     6 :       0.3750    0.3750    0.1250
  band No.  band energies     occupation 
      1     -11.8631      2.00000
      2     -10.8943      2.00000
      3      -7.9097      2.00000
      4      -7.2589      2.00000
      5      -2.9532      2.00000
      6      -1.8326      2.00000
      7      -0.4377      2.00000
      8       0.3692      2.00000
      9       1.3808      2.00000
     10       2.1089      2.00000
     11       3.0919      2.00000
     12       5.0079      2.00000
     13       5.7850      2.00000
     14       6.3954      2.00000
     15       9.2892      2.00000
     16       9.5545      2.00000
     17      10.5943      0.00000
     18      11.3598      0.00000
     19      13.3836      0.00000
     20      13.6741      0.00000
     21      16.2317      0.00000
     22      16.4917      0.00000

 k-point     7 :      -0.3750    0.3750    0.1250
  band No.  band energies     occupation 
      1     -10.6066      2.00000
      2      -9.9758      2.00000
      3      -9.6335      2.00000
      4      -9.4339      2.00000
      5      -1.9891      2.00000
      6      -1.6093      2.00000
      7      -0.8624      2.00000
      8       0.4870      2.00000
      9       3.1220      2.00000
     10       4.9546      2.00000
     11       4.9846      2.00000
     12       5.3707      2.00000
     13       5.4457      2.00000
     14       5.7088      2.00000
     15       6.1971      2.00000
     16       6.4992      2.00000
     17      10.5136      0.00000
     18      11.4696      0.00000
     19      12.5443      0.00000
     20      12.6113      0.00000
     21      16.2898      0.00000
     22      16.6354      0.00000

 k-point     8 :      -0.1250    0.3750    0.1250
  band No.  band energies     occupation 
      1     -12.2549      2.00000
      2     -10.8879      2.00000
      3      -7.7139      2.00000
      4      -7.3417      2.00000
      5      -0.6106      2.00000
      6      -0.0895      2.00000
      7       0.0341      2.00000
      8       0.2152      2.00000
      9       1.0566      2.00000
     10       1.5062      2.00000
     11       1.6177      2.00000
     12       2.3586      2.00000
     13       5.6036      2.00000
     14       6.0858      2.00000
     15       8.1519      2.00000
     16       9.3929      2.00000
     17      10.3422      0.00021
     18      11.2174      0.00000
     19      13.6077      0.00000
     20      14.1097      0.00000
     21      15.7641      0.00000
     22      15.8445      0.00000

 k-point     9 :       0.1250    0.1250    0.3750
  band No.  band energies     occupation 
      1     -12.7144      2.00000
      2     -10.0886      2.00000
      3      -8.9672      2.00000
      4      -6.3717      2.00000
      5      -2.0563      2.00000
      6       0.0111      2.00000
      7       0.1132      2.00000
      8       1.1582      2.00000
      9       1.2636      2.00000
     10       2.0134      2.00000
     11       3.2219      2.00000
     12       4.3042      2.00000
     13       4.6067      2.00000
     14       6.1804      2.00000
     15       7.3418      2.00000
     16       9.2729      2.00000
     17      10.3351      0.00031
     18      10.8505      0.00000
     19      11.3675      0.00000
     20      11.9164      0.00000
     21      13.8474      0.00000
     22      14.9597      0.00000

 k-point    10 :       0.3750    0.1250    0.3750
  band No.  band energies     occupation 
      1     -12.6141      2.00000
      2     -11.2727      2.00000
      3      -6.2700      2.00000
      4      -5.9033      2.00000
      5      -2.4651      2.00000
      6      -1.7522      2.00000
      7      -1.4628      2.00000
      8      -0.8269      2.00000
      9       0.6284      2.00000
     10       2.6448      2.00000
     11       3.6760      2.00000
     12       3.9708      2.00000
     13       5.3845      2.00000
     14       5.7220      2.00000
     15       9.2997      2.00000
     16      11.3561      0.00000
     17      12.5907      0.00000
     18      12.7528      0.00000
     19      12.9530      0.00000
     20      13.5421      0.00000
     21      13.6952      0.00000
     22      14.3162      0.00000

 k-point    11 :      -0.3750    0.1250    0.3750
  band No.  band energies     occupation 
      1     -11.6140      2.00000
      2     -11.3283      2.00000
      3      -9.0936      2.00000
      4      -6.2598      2.00000
      5      -1.5090      2.00000
      6      -1.1715      2.00000
      7      -0.4940      2.00000
      8       1.7511      2.00000
      9       1.7662      2.00000
     10       2.1676      2.00000
     11       2.1934      2.00000
     12       3.0874      2.00000
     13       4.9151      2.00000
     14       6.6790      2.00000
     15       9.8253      1.99969
     16      10.1849      0.13815
     17      10.3609      0.00007
     18      11.1396      0.00000
     19      11.6733      0.00000
     20      11.9231      0.00000
     21      15.5667      0.00000
     22      16.1575      0.00000

 k-point    12 :      -0.1250    0.1250    0.3750
  band No.  band energies     occupation 
      1     -11.5297      2.00000
      2     -10.8743      2.00000
      3      -9.0964      2.00000
      4      -8.3177      2.00000
      5      -0.6328      2.00000
      6      -0.2347      2.00000
      7       0.6718      2.00000
      8       1.4908      2.00000
      9       1.8893      2.00000
     10       3.8697      2.00000
     11       4.4067      2.00000
     12       4.8975      2.00000
     13       5.5873      2.00000
     14       5.6403      2.00000
     15       5.7578      2.00000
     16       6.2459      2.00000
     17       7.8291      2.00000
     18      10.0550      1.27746
     19      10.5243      0.00000
     20      12.4194      0.00000
     21      14.0600      0.00000
     22      15.7602      0.00000

 k-point    13 :       0.1250    0.3750    0.3750
  band No.  band energies     occupation 
      1     -11.9911      2.00000
      2     -10.8779      2.00000
      3      -8.2612      2.00000
      4      -7.1679      2.00000
      5      -2.5897      2.00000
      6      -1.2833      2.00000
      7       0.1268      2.00000
      8       0.7795      2.00000
      9       2.0256      2.00000
     10       2.5425      2.00000
     11       2.9149      2.00000
     12       4.4607      2.00000
     13       4.6181      2.00000
     14       5.5654      2.00000
     15       9.0100      2.00000
     16       9.3921      2.00000
     17      10.7103      0.00000
     18      11.2277      0.00000
     19      12.8700      0.00000
     20      13.1372      0.00000
     21      14.1402      0.00000
     22      15.2524      0.00000

 k-point    14 :       0.3750    0.3750    0.3750
  band No.  band energies     occupation 
      1     -12.0781      2.00000
      2     -11.4714      2.00000
      3      -5.8473      2.00000
      4      -5.6648      2.00000
      5      -3.8751      2.00000
      6      -3.1848      2.00000
      7      -2.1763      2.00000
      8      -2.1371      2.00000
      9       3.2775      2.00000
     10       3.3328      2.00000
     11       3.6207      2.00000
     12       4.9143      2.00000
     13       5.7093      2.00000
     14       6.0146      2.00000
     15      10.2288      0.03547
     16      10.3062      0.00139
     17      12.7412      0.00000
     18      12.8221      0.00000
     19      12.8957      0.00000
     20      13.4235      0.00000
     21      15.0855      0.00000
     22      15.1904      0.00000

 k-point    15 :      -0.3750    0.3750    0.3750
  band No.  band energies     occupation 
      1     -11.3015      2.00000
      2     -11.1694      2.00000
      3      -8.3576      2.00000
      4      -7.1791      2.00000
      5      -3.3969      2.00000
      6      -3.2491      2.00000
      7      -0.1790      2.00000
      8       0.8414      2.00000
      9       2.5089      2.00000
     10       3.4973      2.00000
     11       4.2742      2.00000
     12       4.6940      2.00000
     13       4.9742      2.00000
     14       5.7149      2.00000
     15       9.8737      1.99649
     16      10.1489      0.33072
     17      11.9025      0.00000
     18      11.9363      0.00000
     19      12.2153      0.00000
     20      12.5454      0.00000
     21      15.3536      0.00000
     22      15.6268      0.00000

 k-point    16 :      -0.1250    0.3750    0.3750
  band No.  band energies     occupation 
      1     -10.7452      2.00000
      2     -10.2730      2.00000
      3      -9.4865      2.00000
      4      -9.4383      2.00000
      5      -1.7658      2.00000
      6      -0.8838      2.00000
      7       0.0954      2.00000
      8       1.6362      2.00000
      9       2.0217      2.00000
     10       3.9351      2.00000
     11       4.3455      2.00000
     12       5.3375      2.00000
     13       5.5433      2.00000
     14       5.9581      2.00000
     15       6.1254      2.00000
     16       6.2570      2.00000
     17      10.0848      0.94737
     18      11.3601      0.00000
     19      11.9166      0.00000
     20      12.1095      0.00000
     21      15.9695      0.00000
     22      16.3186      0.00000


--------------------------------------------------------------------------------------------------------


 soft charge-density along one line, spin component           1
         0         1         2         3         4         5         6         7         8         9
 total charge-density along one line
 
 pseudopotential strength for first ion, spin component:           1
  6.134   9.318   0.010  -0.000   0.000   0.015  -0.000   0.000
  9.318  14.147   0.015  -0.000   0.000   0.022  -0.000   0.000
  0.010   0.015  -2.035   0.000  -0.000  -3.423   0.000  -0.000
 -0.000  -0.000   0.000  -2.036   0.002   0.000  -3.423   0.006
  0.000   0.000  -0.000   0.002  -2.036  -0.000   0.006  -3.424
  0.015   0.022  -3.423   0.000  -0.000  -5.556   0.000  -0.000
 -0.000  -0.000   0.000  -3.423   0.006   0.000  -5.554   0.012
  0.000   0.000  -0.000   0.006  -3.424  -0.000   0.012  -5.555
 total augmentation occupancy for first ion, spin component:           1
  3.418  -0.952   1.216   0.000  -0.000  -0.499   0.000  -0.000
 -0.952   0.333  -0.545   0.000   0.000   0.194   0.000   0.000
  1.216  -0.545   3.642   0.000   0.000  -1.025   0.000  -0.000
  0.000   0.000   0.000   3.061  -0.721   0.000  -0.890   0.237
 -0.000   0.000   0.000  -0.721   2.717  -0.000   0.238  -0.773
 -0.499   0.194  -1.025   0.000  -0.000   0.325   0.000   0.000
  0.000   0.000   0.000  -0.890   0.238   0.000   0.275  -0.082
 -0.000   0.000  -0.000   0.237  -0.773   0.000  -0.082   0.236


------------------------ aborting loop because EDIFF is reached ----------------------------------------


    CHARGE:  cpu time    0.0463: real time    0.0463
    FORLOC:  cpu time    0.0045: real time    0.0045
    FORNL :  cpu time    0.0894: real time    0.0894
    STRESS:  cpu time    0.2804: real time    0.2805
    FORCOR:  cpu time    0.0421: real time    0.0421
    FORHAR:  cpu time    0.0108: real time    0.0108
    MIXING:  cpu time    0.0012: real time    0.0012
    OFIELD:  cpu time    0.0000: real time    0.0000

  FORCE on cell =-STRESS in cart. coord.  units (eV):
  Direction    XX          YY          ZZ          XY          YZ          ZX
  --------------------------------------------------------------------------------------
  Alpha Z   119.42613   119.42613   119.42613
  Ewald    -503.54411  -483.23261  -436.39975    -0.00000    -0.00000  -167.24171
  Hartree    70.63305    38.17138    87.82599    -0.00000    -0.00000   -57.46428
  E(xc)    -126.15389  -126.39694  -125.93959    -0.00000    -0.00000    -0.09017
  Local     -44.59866   -23.04200  -122.46599     0.00000     0.00000   199.16991
  n-local   -46.58723   -50.58534   -44.88925     0.86836     0.06495    -0.40103
  augment     3.89785     3.83388     3.64958     0.00000     0.00000     0.29407
  Kinetic   547.62206   532.14955   523.01013    -3.21381    -3.75957    -1.91676
  Fock        0.00000     0.00000     0.00000     0.00000     0.00000     0.00000
  -------------------------------------------------------------------------------------
  Total      20.69520    10.32403     4.21725     0.00000     0.00000   -27.64996
  in kB     695.49842   346.95719   141.72789     0.00000     0.00000  -929.22527
  external pressure =      394.73 kB  Pullay stress =        0.00 kB


 VOLUME and BASIS-vectors are now :
 -----------------------------------------------------------------------------
  energy-cutoff  :      600.00
  volume of cell :       47.67
      direct lattice vectors                 reciprocal lattice vectors
     3.626002000  0.000000000  1.160320640     0.304026308  0.000000000 -0.088251468
     0.000000000  3.626002000  0.000000000     0.000000000  0.275785838  0.000000000
     1.160320640  0.000000000  3.997304605    -0.088251468  0.000000000  0.275785838

  length of vectors
     3.807129429  3.626002000  4.162305622     0.316575927  0.275785838  0.289561997


 FORCES acting on ions
    electron-ion (+dipol)            ewald-force                    non-local-force                 convergence-correction
 -----------------------------------------------------------------------------------------------
   -.169E-07 0.637E+02 0.372E-07   0.124E-13 -.668E+02 -.711E-14   -.913E-18 0.309E+01 0.133E-16   0.553E-14 0.124E-03 0.193E-14
   -.169E-07 0.637E+02 0.372E-07   0.142E-13 -.668E+02 -.711E-14   0.260E-17 0.309E+01 -.823E-17   0.553E-14 0.124E-03 0.446E-14
   -.169E-07 0.637E+02 0.372E-07   0.142E-13 -.668E+02 -.711E-14   0.165E-17 0.309E+01 -.758E-17   0.367E-14 0.124E-03 0.590E-14
   -.169E-07 0.637E+02 0.372E-07   0.142E-13 -.668E+02 -.711E-14   0.370E-18 0.309E+01 0.134E-16   0.433E-14 0.124E-03 0.378E-14
   0.119E-06 -.460E+02 0.518E-06   -.164E-13 0.668E+02 0.104E-13   -.277E-16 -.208E+02 0.101E-16   -.218E-13 0.925E-03 -.119E-13
   0.119E-06 -.460E+02 0.518E-06   -.167E-13 0.668E+02 0.859E-14   0.462E-17 -.208E+02 0.194E-18   -.209E-13 0.925E-03 -.110E-13
   0.119E-06 -.460E+02 0.518E-06   -.106E-13 0.668E+02 0.345E-14   0.454E-16 -.208E+02 -.584E-17   -.296E-13 0.925E-03 -.381E-13
   0.119E-06 -.460E+02 0.518E-06   -.103E-13 0.668E+02 0.662E-14   0.337E-16 -.208E+02 -.154E-16   -.252E-13 0.925E-03 -.311E-13
 -----------------------------------------------------------------------------------------------
   0.409E-06 0.709E+02 0.222E-05   0.105E-14 0.426E-13 0.593E-15   0.598E-16 -.709E+02 -.120E-19   -.785E-13 0.419E-02 -.760E-13
 
 
 POSITION                                       TOTAL-FORCE (eV/Angst)
 -----------------------------------------------------------------------------------
      0.59829      0.31611      0.64470        -0.000000      0.001710      0.000000
      1.17845      2.12911      2.64336         0.000000      0.001710      0.000000
      2.99145      0.31611      3.22352        -0.000000      0.001710      0.000000
      2.41129      2.12911      1.22486        -0.000000      0.001710      0.000000
      2.37503      1.49689      3.93276         0.000000     -0.001710      0.000000
      1.79487      3.30989      1.93411         0.000000     -0.001710     -0.000000
      3.60787      1.49689      2.51427        -0.000000     -0.001710     -0.000000
      4.18803      3.30989      4.51292        -0.000000     -0.001710     -0.000000
 -----------------------------------------------------------------------------------
    total drift:                                0.000000      0.000118      0.000002


--------------------------------------------------------------------------------------------------------



  FREE ENERGIE OF THE ION-ELECTRON SYSTEM (eV)
  ---------------------------------------------------
  free  energy   TOTEN  =       -49.06359482 eV

  energy  without entropy=      -49.04914050  energy(sigma->0) =      -49.05636766
 
 d Force = 0.1518676E-03[ 0.180E-04, 0.286E-03]  d Energy = 0.1544251E-03-0.256E-05
 d Force =-0.7012600E+00[-0.703E+00,-0.699E+00]  d Ewald  =-0.7012595E+00-0.549E-06


--------------------------------------------------------------------------------------------------------


    POTLOK:  cpu time    0.0419: real time    0.0419


--------------------------------------------------------------------------------------------------------




--------------------------------------------------------------------------------------------------------


  
 reached required accuracy - stopping structural energy minimisation
     LOOP+:  cpu time    3.1060: real time    3.1065
    4ORBIT:  cpu time    0.0000: real time    0.0000

 total amount of memory used by VASP MPI-rank0    51539. kBytes
=======================================================================

   base      :      30000. kBytes
   nonl-proj :       3499. kBytes
   fftplans  :       4596. kBytes
   grid      :       8712. kBytes
   one-center:         24. kBytes
   wavefun   :       4708. kBytes
 
  
  
 General timing and accounting informations for this job:
 ========================================================
  
                  Total CPU time used (sec):       35.681
                            User time (sec):       35.226
                          System time (sec):        0.455
                         Elapsed time (sec):       36.031
  
                   Maximum memory used (kb):      142360.
                   Average memory used (kb):          N/A
  
                          Minor page faults:       121314
                          Major page faults:            3
                 Voluntary context switches:          594
