unknown system                          
           1
     3.626002    0.000000    1.160321
     0.000000    3.626002    0.000000
     1.160321    0.000000    3.997305
   B    N 
     4     4
Direct configuration=     1
   0.12500000  0.12500000  0.12500000
   0.12500000  0.62500000  0.62500000
   0.62500000  0.12500000  0.62500000
   0.62500000  0.62500000  0.12500000
   0.37500000  0.37500000  0.87500000
   0.37500000  0.87500000  0.37500000
   0.87500000  0.37500000  0.37500000
   0.87500000  0.87500000  0.87500000
Direct configuration=     2
   0.12500000  0.02146070  0.12500000
   0.12500000  0.52146070  0.62500000
   0.62500000  0.02146070  0.62500000
   0.62500000  0.52146070  0.12500000
   0.37500000  0.47853930  0.87500000
   0.37500000  0.97853930  0.37500000
   0.87500000  0.47853930  0.37500000
   0.87500000  0.97853930  0.87500000
Direct configuration=     3
   0.12500000  0.03578406  0.12500000
   0.12500000  0.53578406  0.62500000
   0.62500000  0.03578406  0.62500000
   0.62500000  0.53578406  0.12500000
   0.37500000  0.46421594  0.87500000
   0.37500000  0.96421594  0.37500000
   0.87500000  0.46421594  0.37500000
   0.87500000  0.96421594  0.87500000
Direct configuration=     4
   0.12500000  0.05062657  0.12500000
   0.12500000  0.55062657  0.62500000
   0.62500000  0.05062657  0.62500000
   0.62500000  0.55062657  0.12500000
   0.37500000  0.44937343  0.87500000
   0.37500000  0.94937343  0.37500000
   0.87500000  0.44937343  0.37500000
   0.87500000  0.94937343  0.87500000
Direct configuration=     5
   0.12500000  0.08781328  0.12500000
   0.12500000  0.58781328  0.62500000
   0.62500000  0.08781328  0.62500000
   0.62500000  0.58781328  0.12500000
   0.37500000  0.41218672  0.87500000
   0.37500000  0.91218672  0.37500000
   0.87500000  0.41218672  0.37500000
   0.87500000  0.91218672  0.87500000
Direct configuration=     6
   0.12500000  0.08681591  0.12500000
   0.12500000  0.58681591  0.62500000
   0.62500000  0.08681591  0.62500000
   0.62500000  0.58681591  0.12500000
   0.37500000  0.41318409  0.87500000
   0.37500000  0.91318409  0.37500000
   0.87500000  0.41318409  0.37500000
   0.87500000  0.91318409  0.87500000
Direct configuration=     7
   0.12500000  0.08717865  0.12500000
   0.12500000  0.58717865  0.62500000
   0.62500000  0.08717865  0.62500000
   0.62500000  0.58717865  0.12500000
   0.37500000  0.41282135  0.87500000
   0.37500000  0.91282135  0.37500000
   0.87500000  0.41282135  0.37500000
   0.87500000  0.91282135  0.87500000
