   2   2   0   0
  0.5708635E+02  0.2284327E-09  0.3179066E-09  0.2000000E-08  0.5000000E-15
  1.000000000000000E-004
  CAR 
 unknown system                          
     10.65481674    -23.13848342  301     -3.95668682      1.00000000
    -23.138  0.0000E+00  0.0000E+00
    -23.026  0.0000E+00  0.0000E+00
    -22.913  0.0000E+00  0.0000E+00
    -22.801  0.0000E+00  0.0000E+00
    -22.688  0.0000E+00  0.0000E+00
    -22.575  0.0000E+00  0.0000E+00
    -22.463  0.0000E+00  0.0000E+00
    -22.350  0.0000E+00  0.0000E+00
    -22.237  0.0000E+00  0.0000E+00
    -22.125  0.5601E-15  0.6310E-16
    -22.012  0.2560E-10  0.2884E-11
    -21.899  0.9879E-07  0.1113E-07
    -21.787  0.3371E-04  0.3808E-05
    -21.674  0.1115E-02  0.1295E-03
    -21.561  0.4168E-02  0.5990E-03
    -21.449  0.1970E-02  0.8209E-03
    -21.336  0.1097E-03  0.8333E-03
    -21.224  0.6149E-06  0.8333E-03
    -21.111  0.1866E-07  0.8333E-03
    -20.998  0.1088E-04  0.8346E-03
    -20.886  0.6086E-03  0.9031E-03
    -20.773  0.3704E-02  0.1320E-02
    -20.660  0.3021E-02  0.1661E-02
    -20.548  0.2840E-02  0.1981E-02
    -20.435  0.3869E-02  0.2416E-02
    -20.322  0.7268E-03  0.2498E-02
    -20.210  0.1501E-04  0.2500E-02
    -20.097  0.2947E-07  0.2500E-02
    -19.984  0.5064E-11  0.2500E-02
    -19.872  0.7310E-16  0.2500E-02
    -19.759  0.0000E+00  0.2500E-02
    -19.647  0.2669E-16  0.2500E-02
    -19.534  0.2474E-11  0.2500E-02
    -19.421  0.1971E-07  0.2500E-02
    -19.309  0.1388E-04  0.2502E-02
    -19.196  0.9317E-03  0.2607E-02
    -19.083  0.6825E-02  0.3375E-02
    -18.971  0.6292E-02  0.4084E-02
    -18.858  0.7255E-03  0.4166E-02
    -18.745  0.1674E-03  0.4185E-02
    -18.633  0.2310E-02  0.4445E-02
    -18.520  0.4024E-02  0.4898E-02
    -18.407  0.8832E-03  0.4998E-02
    -18.295  0.2156E-04  0.5000E-02
    -18.182  0.6071E-06  0.5000E-02
    -18.069  0.1031E-03  0.5012E-02
    -17.957  0.1915E-02  0.5227E-02
    -17.844  0.4185E-02  0.5699E-02
    -17.732  0.1157E-02  0.5829E-02
    -17.619  0.3623E-04  0.5833E-02
    -17.506  0.1102E-06  0.5833E-02
    -17.394  0.4427E-08  0.5833E-02
    -17.281  0.4053E-05  0.5834E-02
    -17.168  0.3460E-03  0.5873E-02
    -17.056  0.3118E-02  0.6224E-02
    -16.943  0.3450E-02  0.6613E-02
    -16.830  0.4734E-03  0.6666E-02
    -16.718  0.6965E-05  0.6667E-02
    -16.605  0.9589E-08  0.6667E-02
    -16.492  0.1146E-11  0.6667E-02
    -16.380  0.1150E-16  0.6667E-02
    -16.267  0.0000E+00  0.6667E-02
    -16.155  0.0000E+00  0.6667E-02
    -16.042  0.0000E+00  0.6667E-02
    -15.929  0.0000E+00  0.6667E-02
    -15.817  0.0000E+00  0.6667E-02
    -15.704  0.0000E+00  0.6667E-02
    -15.591  0.0000E+00  0.6667E-02
    -15.479  0.0000E+00  0.6667E-02
    -15.366  0.0000E+00  0.6667E-02
    -15.253  0.0000E+00  0.6667E-02
    -15.141  0.0000E+00  0.6667E-02
    -15.028  0.0000E+00  0.6667E-02
    -14.915  0.0000E+00  0.6667E-02
    -14.803  0.0000E+00  0.6667E-02
    -14.690  0.0000E+00  0.6667E-02
    -14.578  0.5946E-14  0.6667E-02
    -14.465  0.1667E-09  0.6667E-02
    -14.352  0.4055E-06  0.6667E-02
    -14.240  0.9282E-04  0.6677E-02
    -14.127  0.2338E-02  0.6941E-02
    -14.014  0.8212E-02  0.7866E-02
    -13.902  0.6983E-02  0.8652E-02
    -13.789  0.3969E-02  0.9099E-02
    -13.676  0.5881E-03  0.9166E-02
    -13.564  0.1015E-04  0.9167E-02
    -13.451  0.1658E-07  0.9167E-02
    -13.338  0.3439E-09  0.9167E-02
    -13.226  0.6594E-06  0.9167E-02
    -13.113  0.1158E-03  0.9180E-02
    -13.000  0.2176E-02  0.9425E-02
    -12.888  0.6521E-02  0.1016E-01
    -12.775  0.5081E-02  0.1073E-01
    -12.663  0.8810E-03  0.1083E-01
    -12.550  0.2011E-04  0.1083E-01
    -12.437  0.4518E-07  0.1083E-01
    -12.325  0.8949E-11  0.1083E-01
    -12.212  0.1495E-15  0.1083E-01
    -12.099  0.0000E+00  0.1083E-01
    -11.987  0.0000E+00  0.1083E-01
    -11.874  0.0000E+00  0.1083E-01
    -11.761  0.0000E+00  0.1083E-01
    -11.649  0.0000E+00  0.1083E-01
    -11.536  0.8624E-17  0.1083E-01
    -11.423  0.9238E-12  0.1083E-01
    -11.311  0.8324E-08  0.1083E-01
    -11.198  0.6716E-05  0.1083E-01
    -11.086  0.5426E-03  0.1090E-01
    -10.973  0.5272E-02  0.1149E-01
    -10.860  0.7386E-02  0.1232E-01
    -10.748  0.1546E-02  0.1250E-01
    -10.635  0.4183E-04  0.1250E-01
    -10.522  0.1202E-06  0.1250E-01
    -10.410  0.1987E-08  0.1250E-01
    -10.297  0.2293E-05  0.1250E-01
    -10.184  0.2467E-03  0.1253E-01
    -10.072  0.2758E-02  0.1284E-01
     -9.959  0.3744E-02  0.1326E-01
     -9.846  0.6544E-03  0.1333E-01
     -9.734  0.8398E-03  0.1343E-01
     -9.621  0.3975E-02  0.1388E-01
     -9.509  0.2402E-02  0.1415E-01
     -9.396  0.3460E-03  0.1419E-01
     -9.283  0.2393E-02  0.1446E-01
     -9.171  0.3980E-02  0.1490E-01
     -9.058  0.8336E-03  0.1500E-01
     -8.945  0.3297E-04  0.1500E-01
     -8.833  0.6894E-03  0.1508E-01
     -8.720  0.3820E-02  0.1551E-01
     -8.607  0.2803E-02  0.1583E-01
     -8.495  0.2491E-02  0.1611E-01
     -8.382  0.4047E-02  0.1656E-01
     -8.269  0.9584E-03  0.1667E-01
     -8.157  0.1377E-02  0.1682E-01
     -8.044  0.4630E-02  0.1735E-01
     -7.931  0.4939E-02  0.1790E-01
     -7.819  0.3398E-02  0.1829E-01
     -7.706  0.4189E-03  0.1833E-01
     -7.594  0.6328E-05  0.1833E-01
     -7.481  0.1434E-03  0.1835E-01
     -7.368  0.3304E-02  0.1872E-01
     -7.256  0.1117E-01  0.1998E-01
     -7.143  0.6931E-02  0.2076E-01
     -7.030  0.2672E-02  0.2106E-01
     -6.918  0.4191E-02  0.2153E-01
     -6.805  0.1148E-02  0.2166E-01
     -6.692  0.4260E-03  0.2171E-01
     -6.580  0.3247E-02  0.2208E-01
     -6.467  0.3328E-02  0.2245E-01
     -6.354  0.4215E-03  0.2250E-01
     -6.242  0.6909E-05  0.2250E-01
     -6.129  0.1681E-03  0.2252E-01
     -6.017  0.2368E-02  0.2279E-01
     -5.904  0.3993E-02  0.2324E-01
     -5.791  0.8478E-03  0.2333E-01
     -5.679  0.1997E-04  0.2333E-01
     -5.566  0.4454E-05  0.2333E-01
     -5.453  0.4444E-03  0.2338E-01
     -5.341  0.5550E-02  0.2401E-01
     -5.228  0.1138E-01  0.2529E-01
     -5.115  0.4509E-02  0.2580E-01
     -5.003  0.3072E-03  0.2583E-01
     -4.890  0.2645E-05  0.2583E-01
     -4.777  0.2258E-08  0.2583E-01
     -4.665  0.4329E-11  0.2583E-01
     -4.552  0.2541E-07  0.2583E-01
     -4.440  0.1358E-04  0.2583E-01
     -4.327  0.6879E-03  0.2591E-01
     -4.214  0.3817E-02  0.2634E-01
     -4.102  0.2654E-02  0.2664E-01
     -3.989  0.2232E-03  0.2667E-01
     -3.876  0.2158E-04  0.2667E-01
     -3.764  0.8404E-03  0.2676E-01
     -3.651  0.3986E-02  0.2721E-01
     -3.538  0.2380E-02  0.2748E-01
     -3.426  0.1726E-03  0.2750E-01
     -3.313  0.2515E-03  0.2753E-01
     -3.200  0.2773E-02  0.2784E-01
     -3.088  0.3733E-02  0.2826E-01
     -2.975  0.6281E-03  0.2833E-01
     -2.863  0.1151E-04  0.2833E-01
     -2.750  0.1994E-07  0.2833E-01
     -2.637  0.3014E-11  0.2833E-01
     -2.525  0.3778E-16  0.2833E-01
     -2.412  0.0000E+00  0.2833E-01
     -2.299  0.0000E+00  0.2833E-01
     -2.187  0.0000E+00  0.2833E-01
     -2.074  0.0000E+00  0.2833E-01
     -1.961  0.5955E-16  0.2833E-01
     -1.849  0.4302E-11  0.2833E-01
     -1.736  0.2607E-07  0.2833E-01
     -1.623  0.1381E-04  0.2833E-01
     -1.511  0.6945E-03  0.2841E-01
     -1.398  0.3826E-02  0.2884E-01
     -1.285  0.2641E-02  0.2914E-01
     -1.173  0.2205E-03  0.2917E-01
     -1.060  0.1903E-05  0.2917E-01
     -0.948  0.1528E-08  0.2917E-01
     -0.835  0.9779E-07  0.2917E-01
     -0.722  0.3442E-04  0.2917E-01
     -0.610  0.1288E-02  0.2932E-01
     -0.497  0.7499E-02  0.3016E-01
     -0.384  0.1020E-01  0.3131E-01
     -0.272  0.3166E-02  0.3167E-01
     -0.159  0.2282E-02  0.3192E-01
     -0.046  0.4489E-02  0.3243E-01
      0.066  0.4223E-02  0.3290E-01
      0.179  0.3372E-02  0.3328E-01
      0.292  0.4823E-03  0.3334E-01
      0.404  0.1511E-02  0.3351E-01
      0.517  0.6157E-02  0.3420E-01
      0.629  0.5812E-02  0.3486E-01
      0.742  0.1237E-02  0.3500E-01
      0.855  0.5559E-03  0.3506E-01
      0.967  0.5238E-02  0.3565E-01
      1.080  0.7446E-02  0.3649E-01
      1.193  0.1546E-02  0.3666E-01
      1.305  0.4085E-04  0.3667E-01
      1.418  0.2627E-06  0.3667E-01
      1.531  0.4410E-04  0.3667E-01
      1.643  0.1278E-02  0.3682E-01
      1.756  0.4222E-02  0.3729E-01
      1.869  0.1779E-02  0.3749E-01
      1.981  0.7749E-03  0.3758E-01
      2.094  0.4880E-02  0.3813E-01
      2.206  0.7108E-02  0.3893E-01
      2.319  0.6091E-02  0.3962E-01
      2.432  0.9314E-02  0.4066E-01
      2.544  0.6468E-02  0.4139E-01
      2.657  0.2285E-02  0.4165E-01
      2.770  0.1417E-03  0.4167E-01
      2.882  0.1009E-05  0.4167E-01
      2.995  0.3103E-04  0.4167E-01
      3.108  0.1070E-02  0.4179E-01
      3.220  0.4267E-02  0.4227E-01
      3.333  0.4098E-02  0.4273E-01
      3.446  0.4855E-02  0.4328E-01
      3.558  0.4862E-02  0.4383E-01
      3.671  0.4928E-02  0.4438E-01
      3.784  0.4401E-02  0.4488E-01
      3.896  0.1050E-02  0.4500E-01
      4.009  0.2984E-04  0.4500E-01
      4.121  0.8214E-07  0.4500E-01
      4.234  0.4250E-09  0.4500E-01
      4.347  0.7448E-06  0.4500E-01
      4.459  0.1238E-03  0.4501E-01
      4.572  0.2078E-02  0.4525E-01
      4.685  0.4129E-02  0.4571E-01
      4.797  0.1037E-02  0.4583E-01
      4.910  0.2926E-04  0.4583E-01
      5.023  0.1363E-06  0.4583E-01
      5.135  0.2348E-04  0.4584E-01
      5.248  0.9811E-03  0.4595E-01
      5.361  0.5564E-02  0.4657E-01
      5.473  0.6501E-02  0.4731E-01
      5.586  0.1662E-02  0.4749E-01
      5.698  0.6317E-04  0.4750E-01
      5.811  0.2548E-06  0.4750E-01
      5.924  0.2339E-05  0.4750E-01
      6.036  0.2497E-03  0.4753E-01
      6.149  0.2772E-02  0.4784E-01
      6.262  0.3890E-02  0.4828E-01
      6.374  0.2922E-02  0.4861E-01
      6.487  0.4044E-02  0.4906E-01
      6.600  0.9300E-03  0.4917E-01
      6.712  0.1177E-02  0.4930E-01
      6.825  0.4185E-02  0.4977E-01
      6.938  0.1957E-02  0.4999E-01
      7.050  0.1328E-02  0.5014E-01
      7.163  0.4853E-02  0.5069E-01
      7.275  0.5609E-02  0.5132E-01
      7.388  0.2827E-02  0.5164E-01
      7.501  0.2410E-03  0.5167E-01
      7.613  0.2197E-05  0.5167E-01
      7.726  0.1841E-08  0.5167E-01
      7.839  0.1053E-11  0.5167E-01
      7.951  0.8114E-08  0.5167E-01
      8.064  0.6206E-05  0.5167E-01
      8.177  0.4431E-03  0.5172E-01
      8.289  0.3381E-02  0.5210E-01
      8.402  0.3192E-02  0.5246E-01
      8.515  0.3710E-03  0.5250E-01
      8.627  0.4566E-05  0.5250E-01
      8.740  0.5528E-08  0.5250E-01
      8.853  0.6149E-06  0.5250E-01
      8.965  0.1097E-03  0.5251E-01
      9.078  0.1970E-02  0.5273E-01
      9.190  0.4168E-02  0.5320E-01
      9.303  0.1115E-02  0.5333E-01
      9.416  0.3371E-04  0.5333E-01
      9.528  0.9879E-07  0.5333E-01
      9.641  0.2560E-10  0.5333E-01
      9.754  0.5601E-15  0.5333E-01
      9.866  0.0000E+00  0.5333E-01
      9.979  0.0000E+00  0.5333E-01
     10.092  0.0000E+00  0.5333E-01
     10.204  0.0000E+00  0.5333E-01
     10.317  0.0000E+00  0.5333E-01
     10.430  0.0000E+00  0.5333E-01
     10.542  0.0000E+00  0.5333E-01
     10.655  0.0000E+00  0.5333E-01
