    2    2  300    1
  0.5708635E+02  0.2284327E-09  0.3179066E-09  0.2000000E-08  0.5000000E-15
  1.000000000000000E-004
  CAR 
 unknown system                          
      8      8      8
 
  0.1250000E+00  0.1250000E+00  0.0000000E+00  0.1250000E+00
    1      -21.602424   1.000000
    2       -9.648752   1.000000
    3       -8.094479   1.000000
    4       -5.334365   1.000000
    5       -1.418412   0.000000
    6        1.009776   0.000000
    7        1.708340   0.000000
    8        2.075888   0.000000
 
  0.3750000E+00  0.1250000E+00  0.0000000E+00  0.1250000E+00
    1      -18.602341   1.000000
    2      -12.960747   1.000000
    3       -7.327473   1.000000
    4       -5.987947   1.000000
    5       -3.184164   0.000000
    6        0.559588   0.000000
    7        5.416860   0.000000
    8        6.165382   0.000000
 
 -0.3750000E+00  0.1250000E+00  0.0000000E+00  0.1250000E+00
    1      -17.050147   1.000000
    2      -12.859189   1.000000
    3      -10.929499   1.000000
    4       -4.234136   0.999956
    5       -3.679238   0.000044
    6       -0.424591   0.000000
    7        8.286145   0.000000
    8        9.118758   0.000000
 
 -0.1250000E+00  0.1250000E+00  0.0000000E+00  0.1250000E+00
    1      -20.787994   1.000000
    2      -10.055016   1.000000
    3       -8.739992   1.000000
    4       -7.242115   1.000000
    5        0.966611   0.000000
    6        2.348113   0.000000
    7        2.510707   0.000000
    8        3.371223   0.000000
 
  0.1250000E+00  0.3750000E+00  0.0000000E+00  0.1250000E+00
    1      -20.525528   1.000000
    2      -10.975952   1.000000
    3       -8.463082   1.000000
    4       -7.930404   1.000000
    5        2.165972   0.000000
    6        2.376267   0.000000
    7        3.543847   0.000000
    8        3.708887   0.000000
 
  0.3750000E+00  0.3750000E+00  0.0000000E+00  0.1250000E+00
    1      -19.094481   1.000000
    2      -14.029609   1.000000
    3       -6.578420   1.000000
    4       -5.295790   1.000000
    5       -0.123438   0.000000
    6        0.464513   0.000000
    7        4.609577   0.000000
    8        5.328424   0.000000
 
 -0.3750000E+00  0.3750000E+00  0.0000000E+00  0.1250000E+00
    1      -17.914129   1.000000
    2      -13.888112   1.000000
    3       -9.255356   1.000000
    4       -5.243022   1.000000
    5       -0.537671   0.000000
    6        0.068184   0.000000
    7        6.782276   0.000000
    8        7.117891   0.000000
 
 -0.1250000E+00  0.3750000E+00  0.0000000E+00  0.1250000E+00
    1      -19.081068   1.000000
    2      -14.077894   1.000000
    3       -7.294078   1.000000
    4       -6.988211   1.000000
    5       -0.464286   0.000000
    6        3.181330   0.000000
    7        6.405228   0.000000
    8        7.257945   0.000000
