       N       E                     dE             d eps       ncg     rms          rms(c)
DAV:   1     0.625595554227E+02    0.62560E+02   -0.36515E+03   128   0.824E+02
DAV:   2    -0.113060570354E+02   -0.73866E+02   -0.63541E+02   208   0.136E+02
DAV:   3    -0.162028857618E+02   -0.48968E+01   -0.48968E+01   160   0.555E+01
DAV:   4    -0.162538706227E+02   -0.50985E-01   -0.50985E-01   224   0.659E+00
DAV:   5    -0.162539261685E+02   -0.55546E-04   -0.55546E-04   184   0.196E-01    0.748E+00
DAV:   6    -0.148227211595E+02    0.14312E+01   -0.17528E+00   208   0.110E+01    0.400E+00
DAV:   7    -0.143989807761E+02    0.42374E+00   -0.16779E+00   200   0.107E+01    0.109E+00
DAV:   8    -0.143912045460E+02    0.77762E-02   -0.41046E-02   216   0.203E+00    0.155E-01
DAV:   9    -0.143902719344E+02    0.93261E-03   -0.25990E-03   208   0.435E-01    0.818E-02
DAV:  10    -0.143893270209E+02    0.94491E-03   -0.91681E-04   200   0.202E-01    0.424E-02
DAV:  11    -0.143892948021E+02    0.32219E-04   -0.28554E-04   192   0.104E-01    0.340E-02
DAV:  12    -0.143898797962E+02   -0.58499E-03   -0.38174E-04   168   0.979E-02    0.197E-02
DAV:  13    -0.143899809747E+02   -0.10118E-03   -0.41631E-06   176   0.161E-02    0.105E-02
DAV:  14    -0.143906727020E+02   -0.69173E-03   -0.11925E-04   168   0.485E-02    0.685E-03
DAV:  15    -0.143907271951E+02   -0.54493E-04   -0.39162E-06   192   0.966E-03    0.162E-03
DAV:  16    -0.143907626564E+02   -0.35461E-04   -0.34164E-06   160   0.799E-03    0.126E-03
DAV:  17    -0.143907690761E+02   -0.64197E-05   -0.13368E-07   192   0.222E-03    0.104E-03
DAV:  18    -0.143907719780E+02   -0.29019E-05   -0.20742E-07   136   0.219E-03    0.531E-04
DAV:  19    -0.143907747139E+02   -0.27359E-05   -0.18262E-08   144   0.921E-04    0.186E-04
DAV:  20    -0.143907753338E+02   -0.61990E-06   -0.26879E-09   176   0.293E-04
   1 F= -.14556649E+02 E0= -.14556649E+02  d E =-.145566E+02
       N       E                     dE             d eps       ncg     rms          rms(c)
DAV:   1    -0.134063957906E+02    0.98438E+00   -0.71161E+02   136   0.224E+02    0.705E+00
DAV:   2    -0.135610944507E+02   -0.15470E+00   -0.14976E+01   152   0.377E+01    0.403E+00
DAV:   3    -0.132628335456E+02    0.29826E+00   -0.83131E-01   184   0.762E+00    0.174E+00
DAV:   4    -0.132604045668E+02    0.24290E-02   -0.85793E-02   176   0.250E+00    0.767E-01
DAV:   5    -0.132644418072E+02   -0.40372E-02   -0.86886E-03   232   0.863E-01    0.172E-01
DAV:   6    -0.132638833435E+02    0.55846E-03   -0.14809E-03   216   0.319E-01    0.887E-02
DAV:   7    -0.132638516986E+02    0.31645E-04   -0.45066E-04   184   0.169E-01    0.144E-02
DAV:   8    -0.132638897992E+02   -0.38101E-04   -0.38783E-05   176   0.538E-02    0.127E-02
DAV:   9    -0.132639324572E+02   -0.42658E-04   -0.38674E-05   152   0.437E-02    0.616E-03
DAV:  10    -0.132639615471E+02   -0.29090E-04   -0.88073E-06   160   0.187E-02    0.547E-03
DAV:  11    -0.132639737680E+02   -0.12221E-04   -0.65035E-06   168   0.156E-02    0.152E-03
DAV:  12    -0.132639768176E+02   -0.30496E-05   -0.25146E-07   192   0.405E-03    0.786E-04
DAV:  13    -0.132639788335E+02   -0.20159E-05   -0.15797E-07   152   0.224E-03    0.538E-04
DAV:  14    -0.132639791923E+02   -0.35875E-06   -0.48016E-08   168   0.106E-03
   2 F= -.13391080E+02 E0= -.13383911E+02  d E =0.116557E+01
       N       E                     dE             d eps       ncg     rms          rms(c)
DAV:   1    -0.813147574901E+01    0.51325E+01   -0.62454E+02   168   0.203E+02    0.954E+00
DAV:   2    -0.686484982216E+01    0.12666E+01   -0.13895E+01   160   0.397E+01    0.549E+00
DAV:   3    -0.589772554711E+01    0.96712E+00   -0.52671E+00   232   0.196E+01    0.130E+00
DAV:   4    -0.588973396639E+01    0.79916E-02   -0.55963E-02   184   0.265E+00    0.772E-01
DAV:   5    -0.588441741075E+01    0.53166E-02   -0.15165E-02   192   0.109E+00    0.187E-01
DAV:   6    -0.588384827890E+01    0.56913E-03   -0.18216E-03   192   0.411E-01    0.615E-02
DAV:   7    -0.588384059959E+01    0.76793E-05   -0.65503E-04   184   0.170E-01    0.223E-02
DAV:   8    -0.588405811149E+01   -0.21751E-03   -0.12483E-04   192   0.754E-02    0.262E-02
DAV:   9    -0.588434215352E+01   -0.28404E-03   -0.11002E-04   160   0.862E-02    0.139E-02
DAV:  10    -0.588460192828E+01   -0.25977E-03   -0.31507E-05   200   0.370E-02    0.225E-03
DAV:  11    -0.588470392849E+01   -0.10200E-03   -0.82952E-06   208   0.155E-02    0.398E-03
DAV:  12    -0.588474183717E+01   -0.37909E-04   -0.35131E-06   168   0.105E-02    0.588E-04
DAV:  13    -0.588475135442E+01   -0.95172E-05   -0.66268E-07   160   0.420E-03    0.537E-04
DAV:  14    -0.588475406301E+01   -0.27086E-05   -0.10594E-07   144   0.161E-03    0.359E-04
DAV:  15    -0.588475507654E+01   -0.10135E-05   -0.21431E-08   168   0.643E-04    0.286E-04
DAV:  16    -0.588475598862E+01   -0.91209E-06   -0.12734E-08   152   0.815E-04
   3 F= -.60594559E+01 E0= -.60594559E+01  d E =0.849719E+01
       N       E                     dE             d eps       ncg     rms          rms(c)
DAV:   1    -0.156528919166E+02   -0.97681E+01   -0.66147E+02   128   0.241E+02    0.989E+00
DAV:   2    -0.139379742523E+02    0.17149E+01   -0.15146E+01   192   0.341E+01    0.447E+00
DAV:   3    -0.134486854801E+02    0.48929E+00   -0.13949E+00   208   0.946E+00    0.174E+00
DAV:   4    -0.134306199789E+02    0.18066E-01   -0.14230E-01   168   0.334E+00    0.616E-01
DAV:   5    -0.134300079678E+02    0.61201E-03   -0.50598E-03   192   0.658E-01    0.276E-01
DAV:   6    -0.134297017015E+02    0.30627E-03   -0.16455E-03   168   0.335E-01    0.768E-02
DAV:   7    -0.134296094445E+02    0.92257E-04   -0.37556E-04   208   0.165E-01    0.411E-02
DAV:   8    -0.134295861287E+02    0.23316E-04   -0.10177E-04   160   0.813E-02    0.182E-02
DAV:   9    -0.134296006927E+02   -0.14564E-04   -0.53494E-05   152   0.463E-02    0.120E-02
DAV:  10    -0.134296202618E+02   -0.19569E-04   -0.59816E-05   168   0.400E-02    0.454E-03
DAV:  11    -0.134296331540E+02   -0.12892E-04   -0.64628E-06   176   0.197E-02    0.692E-03
DAV:  12    -0.134296447893E+02   -0.11635E-04   -0.53226E-06   184   0.187E-02    0.376E-03
DAV:  13    -0.134296509194E+02   -0.61301E-05   -0.14516E-06   168   0.837E-03    0.675E-04
DAV:  14    -0.134296530323E+02   -0.21129E-05   -0.13683E-07   168   0.247E-03    0.723E-04
DAV:  15    -0.134296537807E+02   -0.74848E-06   -0.92510E-08   128   0.176E-03
   4 F= -.13560103E+02 E0= -.13547239E+02  d E =0.996546E+00
       N       E                     dE             d eps       ncg     rms          rms(c)
DAV:   1    -0.147672826269E+02   -0.13376E+01   -0.14398E+02   144   0.109E+02    0.376E+00
DAV:   2    -0.145833389751E+02    0.18394E+00   -0.19444E+00   200   0.142E+01    0.206E+00
DAV:   3    -0.144558456200E+02    0.12749E+00   -0.51566E-01   208   0.636E+00    0.692E-01
DAV:   4    -0.144520417046E+02    0.38039E-02   -0.22453E-02   200   0.152E+00    0.311E-01
DAV:   5    -0.144529177425E+02   -0.87604E-03   -0.23015E-03   224   0.453E-01    0.223E-01
DAV:   6    -0.144521927446E+02    0.72500E-03   -0.19806E-03   168   0.401E-01    0.492E-02
DAV:   7    -0.144522238319E+02   -0.31087E-04   -0.10156E-04   144   0.103E-01    0.225E-02
DAV:   8    -0.144522916169E+02   -0.67785E-04   -0.54759E-05   160   0.652E-02    0.282E-02
DAV:   9    -0.144522836071E+02    0.80098E-05   -0.88644E-06   208   0.255E-02    0.115E-02
DAV:  10    -0.144523955008E+02   -0.11189E-03   -0.38308E-05   168   0.379E-02    0.128E-02
DAV:  11    -0.144523926909E+02    0.28099E-05   -0.29491E-06   208   0.150E-02    0.452E-03
DAV:  12    -0.144524257911E+02   -0.33100E-04   -0.11228E-06   184   0.829E-03    0.197E-03
DAV:  13    -0.144524291280E+02   -0.33369E-05   -0.16675E-07   192   0.256E-03    0.155E-03
DAV:  14    -0.144524382792E+02   -0.91512E-05   -0.41745E-07   192   0.289E-03    0.357E-04
DAV:  15    -0.144524399562E+02   -0.16770E-05   -0.74269E-08   168   0.135E-03    0.442E-04
DAV:  16    -0.144524404414E+02   -0.48521E-06   -0.13439E-08   176   0.733E-04
   5 F= -.14618036E+02 E0= -.14612597E+02  d E =-.613865E-01
       N       E                     dE             d eps       ncg     rms          rms(c)
DAV:   1    -0.146137883446E+02   -0.16135E+00   -0.26562E+01   128   0.480E+01    0.177E+00
DAV:   2    -0.145609981869E+02    0.52790E-01   -0.29028E-01   184   0.531E+00    0.916E-01
DAV:   3    -0.145351564286E+02    0.25842E-01   -0.77927E-02   192   0.265E+00    0.157E-01
DAV:   4    -0.145357245707E+02   -0.56814E-03   -0.73887E-03   192   0.760E-01    0.991E-02
DAV:   5    -0.145356944321E+02    0.30139E-04   -0.21179E-04   176   0.122E-01    0.378E-02
DAV:   6    -0.145357014545E+02   -0.70223E-05   -0.39790E-05   184   0.530E-02    0.674E-03
DAV:   7    -0.145357035823E+02   -0.21278E-05   -0.27985E-06   160   0.150E-02    0.209E-03
DAV:   8    -0.145357040501E+02   -0.46781E-06   -0.26195E-07   184   0.434E-03
   6 F= -.14692587E+02 E0= -.14692587E+02  d E =-.135938E+00
       N       E                     dE             d eps       ncg     rms          rms(c)
DAV:   1    -0.145968094337E+02   -0.61106E-01   -0.48610E+00   128   0.213E+01    0.597E-01
DAV:   2    -0.145964027939E+02    0.40664E-03   -0.47620E-02   152   0.217E+00    0.314E-01
DAV:   3    -0.145946397700E+02    0.17630E-02   -0.66066E-03   176   0.744E-01    0.731E-02
DAV:   4    -0.145946545787E+02   -0.14809E-04   -0.43967E-04   208   0.203E-01    0.324E-02
DAV:   5    -0.145946519841E+02    0.25946E-05   -0.35910E-05   168   0.531E-02    0.635E-03
DAV:   6    -0.145946590499E+02   -0.70658E-05   -0.28846E-06   176   0.149E-02    0.391E-03
DAV:   7    -0.145946777500E+02   -0.18700E-04   -0.40419E-06   168   0.101E-02    0.408E-03
DAV:   8    -0.145946780799E+02   -0.32988E-06   -0.72181E-08   168   0.209E-03
   7 F= -.14756303E+02 E0= -.14756165E+02  d E =-.199654E+00
       N       E                     dE             d eps       ncg     rms          rms(c)
DAV:   1    -0.145979462496E+02   -0.32685E-02   -0.15148E-01   128   0.380E+00    0.112E-01
DAV:   2    -0.145979611397E+02   -0.14890E-04   -0.18637E-03   200   0.420E-01    0.582E-02
DAV:   3    -0.145978939071E+02    0.67233E-04   -0.18010E-04   144   0.125E-01    0.164E-02
DAV:   4    -0.145978933503E+02    0.55680E-06   -0.22909E-05   192   0.446E-02    0.600E-03
DAV:   5    -0.145978959147E+02   -0.25644E-05   -0.23685E-06   168   0.131E-02    0.167E-03
DAV:   6    -0.145978966292E+02   -0.71456E-06   -0.92277E-08   208   0.268E-03
   8 F= -.14758802E+02 E0= -.14758790E+02  d E =-.202153E+00
       N       E                     dE             d eps       ncg     rms          rms(c)
DAV:   1    -0.145978580407E+02    0.37874E-04   -0.14105E-03   168   0.366E-01    0.961E-03
DAV:   2    -0.145978585651E+02   -0.52442E-06   -0.14954E-05   160   0.373E-02    0.544E-03
DAV:   3    -0.145978586120E+02   -0.46838E-07   -0.23314E-06   144   0.138E-02
   9 F= -.14758835E+02 E0= -.14758820E+02  d E =-.202186E+00
       N       E                     dE             d eps       ncg     rms          rms(c)
DAV:   1    -0.147058316900E+02   -0.10797E+00   -0.12189E+01   136   0.316E+01    0.134E+00
DAV:   2    -0.146693058308E+02    0.36526E-01   -0.12475E-01   192   0.361E+00    0.392E-01
DAV:   3    -0.146679446309E+02    0.13612E-02   -0.18598E-02   200   0.842E-01    0.197E-01
DAV:   4    -0.146681762672E+02   -0.23164E-03   -0.58562E-03   168   0.353E-01    0.137E-01
DAV:   5    -0.146678725739E+02    0.30369E-03   -0.33819E-03   192   0.243E-01    0.334E-02
DAV:   6    -0.146678677494E+02    0.48245E-05   -0.66894E-05   168   0.750E-02    0.805E-03
DAV:   7    -0.146678771581E+02   -0.94087E-05   -0.67357E-06   192   0.214E-02    0.439E-03
DAV:   8    -0.146678822000E+02   -0.50419E-05   -0.85162E-07   176   0.822E-03    0.126E-03
DAV:   9    -0.146678932806E+02   -0.11081E-04   -0.20407E-06   144   0.709E-03    0.112E-03
DAV:  10    -0.146678967262E+02   -0.34456E-05   -0.52939E-07   144   0.384E-03    0.377E-04
DAV:  11    -0.146678975528E+02   -0.82668E-06   -0.79992E-08   144   0.144E-03
  10 F= -.14827488E+02 E0= -.14820454E+02  d E =-.686533E-01
       N       E                     dE             d eps       ncg     rms          rms(c)
DAV:   1    -0.147322950446E+02   -0.64398E-01   -0.95710E+01   136   0.905E+01    0.196E+00
DAV:   2    -0.147725650165E+02   -0.40270E-01   -0.10372E+00   160   0.109E+01    0.118E+00
DAV:   3    -0.147413803521E+02    0.31185E-01   -0.94279E-02   184   0.259E+00    0.304E-01
DAV:   4    -0.147417567624E+02   -0.37641E-03   -0.68652E-03   192   0.794E-01    0.140E-01
DAV:   5    -0.147415664917E+02    0.19027E-03   -0.11197E-03   152   0.270E-01    0.125E-02
DAV:   6    -0.147415721491E+02   -0.56574E-05   -0.31825E-05   200   0.522E-02    0.119E-02
DAV:   7    -0.147415777528E+02   -0.56037E-05   -0.37638E-06   144   0.158E-02    0.341E-03
DAV:   8    -0.147415806594E+02   -0.29066E-05   -0.24531E-07   184   0.453E-03    0.874E-04
DAV:   9    -0.147415858718E+02   -0.52124E-05   -0.22129E-07   176   0.311E-03    0.983E-04
DAV:  10    -0.147415880753E+02   -0.22035E-05   -0.72605E-08   184   0.141E-03    0.319E-04
DAV:  11    -0.147415908851E+02   -0.28098E-05   -0.17915E-07   144   0.150E-03    0.127E-04
DAV:  12    -0.147415910817E+02   -0.19663E-06   -0.10625E-09   208   0.232E-04
  11 F= -.14914754E+02 E0= -.14914754E+02  d E =-.155919E+00
       N       E                     dE             d eps       ncg     rms          rms(c)
DAV:   1    -0.147900220385E+02   -0.48431E-01   -0.25911E+01   128   0.476E+01    0.109E+00
DAV:   2    -0.147912468559E+02   -0.12248E-02   -0.22249E-01   176   0.484E+00    0.606E-01
DAV:   3    -0.147852726735E+02    0.59742E-02   -0.20611E-02   176   0.130E+00    0.990E-02
DAV:   4    -0.147854929704E+02   -0.22030E-03   -0.16975E-03   200   0.376E-01    0.469E-02
DAV:   5    -0.147855037233E+02   -0.10753E-04   -0.10299E-04   168   0.898E-02    0.806E-03
DAV:   6    -0.147855156903E+02   -0.11967E-04   -0.68101E-06   200   0.232E-02    0.355E-03
DAV:   7    -0.147855399446E+02   -0.24254E-04   -0.58538E-06   168   0.126E-02    0.245E-03
DAV:   8    -0.147855399408E+02    0.38982E-08   -0.41035E-08   200   0.165E-03
  12 F= -.14951537E+02 E0= -.14951534E+02  d E =-.192702E+00
       N       E                     dE             d eps       ncg     rms          rms(c)
DAV:   1    -0.147781229198E+02    0.74170E-02   -0.11356E+01   128   0.315E+01    0.699E-01
DAV:   2    -0.147808508465E+02   -0.27279E-02   -0.99612E-02   168   0.331E+00    0.398E-01
DAV:   3    -0.147779969092E+02    0.28539E-02   -0.10862E-02   176   0.911E-01    0.712E-02
DAV:   4    -0.147780906485E+02   -0.93739E-04   -0.63002E-04   200   0.236E-01    0.384E-02
DAV:   5    -0.147780842208E+02    0.64277E-05   -0.52618E-05   184   0.632E-02    0.540E-03
DAV:   6    -0.147780892161E+02   -0.49953E-05   -0.49550E-06   192   0.196E-02    0.403E-03
DAV:   7    -0.147781010052E+02   -0.11789E-04   -0.26390E-06   160   0.986E-03    0.408E-03
DAV:   8    -0.147781019445E+02   -0.93931E-06   -0.30583E-08   192   0.171E-03
  13 F= -.14949593E+02 E0= -.14949593E+02  d E =-.190758E+00
       N       E                     dE             d eps       ncg     rms          rms(c)
DAV:   1    -0.147937825406E+02   -0.15682E-01   -0.31812E+00   128   0.167E+01    0.379E-01
DAV:   2    -0.147939885180E+02   -0.20598E-03   -0.25844E-02   184   0.165E+00    0.213E-01
DAV:   3    -0.147932152561E+02    0.77326E-03   -0.29289E-03   152   0.482E-01    0.297E-02
DAV:   4    -0.147932435342E+02   -0.28278E-04   -0.22000E-04   216   0.131E-01    0.177E-02
DAV:   5    -0.147932464555E+02   -0.29214E-05   -0.10725E-05   168   0.287E-02    0.286E-03
DAV:   6    -0.147932495734E+02   -0.31179E-05   -0.10433E-06   176   0.864E-03    0.135E-03
DAV:   7    -0.147932567562E+02   -0.71828E-05   -0.13196E-06   160   0.575E-03    0.140E-03
DAV:   8    -0.147932566764E+02    0.79844E-07   -0.96853E-09   160   0.849E-04
  14 F= -.14962166E+02 E0= -.14962166E+02  d E =-.203331E+00
       N       E                     dE             d eps       ncg     rms          rms(c)
DAV:   1    -0.148070158116E+02   -0.13759E-01   -0.51033E-01   136   0.664E+00    0.173E-01
DAV:   2    -0.148069602920E+02    0.55520E-04   -0.49782E-03   176   0.722E-01    0.977E-02
DAV:   3    -0.148067509937E+02    0.20930E-03   -0.52731E-04   184   0.219E-01    0.255E-02
DAV:   4    -0.148067531380E+02   -0.21443E-05   -0.76264E-05   200   0.783E-02    0.930E-03
DAV:   5    -0.148067535166E+02   -0.37863E-06   -0.37880E-06   160   0.189E-02
  15 F= -.14976511E+02 E0= -.14976511E+02  d E =-.143453E-01
       N       E                     dE             d eps       ncg     rms          rms(c)
DAV:   1    -0.148199392455E+02   -0.13186E-01   -0.22094E+00   136   0.138E+01    0.384E-01
DAV:   2    -0.148187082230E+02    0.12310E-02   -0.17917E-02   184   0.146E+00    0.211E-01
DAV:   3    -0.148176652514E+02    0.10430E-02   -0.33246E-03   176   0.547E-01    0.354E-02
DAV:   4    -0.148177009407E+02   -0.35689E-04   -0.34998E-04   184   0.161E-01    0.203E-02
DAV:   5    -0.148177006126E+02    0.32808E-06   -0.76860E-06   184   0.268E-02
  16 F= -.14989000E+02 E0= -.14989000E+02  d E =-.268341E-01
       N       E                     dE             d eps       ncg     rms          rms(c)
DAV:   1    -0.148226562408E+02   -0.49553E-02   -0.71580E-02   128   0.253E+00    0.584E-02
DAV:   2    -0.148226526209E+02    0.36199E-05   -0.51486E-04   152   0.230E-01    0.338E-02
DAV:   3    -0.148226327754E+02    0.19845E-04   -0.89689E-05   184   0.786E-02    0.625E-03
DAV:   4    -0.148226329572E+02   -0.18187E-06   -0.28839E-06   160   0.169E-02
  17 F= -.14993554E+02 E0= -.14993554E+02  d E =-.455397E-02
       N       E                     dE             d eps       ncg     rms          rms(c)
DAV:   1    -0.148301618887E+02   -0.75291E-02   -0.64648E-01   128   0.761E+00    0.174E-01
DAV:   2    -0.148301480845E+02    0.13804E-04   -0.47518E-03   192   0.694E-01    0.102E-01
DAV:   3    -0.148299912778E+02    0.15681E-03   -0.74686E-04   176   0.224E-01    0.175E-02
DAV:   4    -0.148299944538E+02   -0.31760E-05   -0.28864E-05   160   0.524E-02    0.954E-03
DAV:   5    -0.148299984922E+02   -0.40384E-05   -0.50553E-06   192   0.190E-02    0.143E-03
DAV:   6    -0.148300006510E+02   -0.21588E-05   -0.22877E-07   192   0.397E-03    0.105E-03
DAV:   7    -0.148300062690E+02   -0.56180E-05   -0.81141E-07   152   0.409E-03    0.717E-04
DAV:   8    -0.148300067105E+02   -0.44150E-06   -0.10310E-08   200   0.773E-04
  18 F= -.14999618E+02 E0= -.14999616E+02  d E =-.106184E-01
       N       E                     dE             d eps       ncg     rms          rms(c)
DAV:   1    -0.148300307619E+02   -0.24493E-04   -0.19476E-03   152   0.409E-01    0.115E-02
DAV:   2    -0.148300301314E+02    0.63047E-06   -0.19674E-05   184   0.462E-02    0.648E-03
DAV:   3    -0.148300293096E+02    0.82174E-06   -0.25993E-06   160   0.157E-02
  19 F= -.14999689E+02 E0= -.14999686E+02  d E =-.704524E-04
       N       E                     dE             d eps       ncg     rms          rms(c)
DAV:   1    -0.148299933508E+02    0.36781E-04   -0.98760E-03   136   0.920E-01    0.261E-02
DAV:   2    -0.148299889394E+02    0.44114E-05   -0.92584E-05   184   0.100E-01    0.146E-02
DAV:   3    -0.148299841091E+02    0.48303E-05   -0.13563E-05   168   0.354E-02    0.306E-03
DAV:   4    -0.148299843155E+02   -0.20642E-06   -0.18229E-06   160   0.117E-02
  20 F= -.14999751E+02 E0= -.14999748E+02  d E =-.132481E-03
       N       E                     dE             d eps       ncg     rms          rms(c)
DAV:   1    -0.148300036606E+02   -0.19552E-04   -0.85124E-05   136   0.877E-02    0.203E-03
DAV:   2    -0.148300035989E+02    0.61787E-07   -0.69191E-07   160   0.819E-03
  21 F= -.14999754E+02 E0= -.14999751E+02  d E =-.284263E-05
       N       E                     dE             d eps       ncg     rms          rms(c)
DAV:   1    -0.148300235022E+02   -0.19842E-04   -0.10994E-04   136   0.999E-02    0.243E-03
DAV:   2    -0.148300234167E+02    0.85515E-07   -0.78565E-07   160   0.889E-03
  22 F= -.14999755E+02 E0= -.14999751E+02  d E =-.375856E-05
