 vasp.6.2.1 16May21 (build Oct 21 2023 21:03:18) complex                        
  
 executed on             LinuxIFC date 2024.06.15  20:10:28
 running on    2 total cores
 distrk:  each k-point on    2 cores,    1 groups
 distr:  one band on NCORE=   1 cores,    2 groups


--------------------------------------------------------------------------------------------------------


 INCAR:
   PREC = accurate
   ENCUT = 600
   EDIFF = 1e-06
   EDIFFG = 1e-05
   IBRION = 2
   ISIF = 2
   ISYM = 2
   ISMEAR = 0
   SIGMA = 0.1
   LREAL = False
   NPAR = 4
   NSW = 300
   ISTART = 0
   LVDW = True
   IVDW = 12
   LCHARG = False
   LPLANE = False
   LWAVE = False

 POTCAR:    PAW_PBE C 08Apr2002                   
 -----------------------------------------------------------------------------
|                                                                             |
|           W    W    AA    RRRRR   N    N  II  N    N   GGGG   !!!           |
|           W    W   A  A   R    R  NN   N  II  NN   N  G    G  !!!           |
|           W    W  A    A  R    R  N N  N  II  N N  N  G       !!!           |
|           W WW W  AAAAAA  RRRRR   N  N N  II  N  N N  G  GGG   !            |
|           WW  WW  A    A  R   R   N   NN  II  N   NN  G    G                |
|           W    W  A    A  R    R  N    N  II  N    N   GGGG   !!!           |
|                                                                             |
|     The value NPAR = 4 specified in the INCAR file was overwritten,         |
|     because it was not compatible with the 2 processes available:           |
|     NPAR = 2                                                                |
|     was used instead, please check that this makes sense for your           |
|     machine.                                                                |
|                                                                             |
 -----------------------------------------------------------------------------

 POTCAR:    PAW_PBE C 08Apr2002                   
   SHA256 =  253f7b50bb8d59471dbedb8285d89021f4a42ed1a2c5d38a03a736e69125dd95 C/POTCAR              
   COPYR  = (c) Copyright 08Apr2002 Georg Kresse                                                    
   COPYR  = This file is part of the software VASP. Any use, copying, and all other rights are regul
   COPYR  = If you do not have a valid VASP license, you may not use, copy or distribute this file. 
   VRHFIN =C: s2p2                                                                                  
   LEXCH  = PE                                                                                      
   EATOM  =   147.1560 eV,   10.8157 Ry                                                             
                                                                                                    
   TITEL  = PAW_PBE C 08Apr2002                                                                     
   LULTRA =        F    use ultrasoft PP ?                                                          
   IUNSCR =        1    unscreen: 0-lin 1-nonlin 2-no                                               
   RPACOR =    1.200    partial core radius                                                         
   POMASS =   12.011; ZVAL   =    4.000    mass and valenz                                          
   RCORE  =    1.500    outmost cutoff radius                                                       
   RWIGS  =    1.630; RWIGS  =    0.863    wigner-seitz radius (au A)                               
   ENMAX  =  400.000; ENMIN  =  300.000 eV                                                          
   ICORE  =        2    local potential                                                             
   LCOR   =        T    correct aug charges                                                         
   LPAW   =        T    paw PP                                                                      
   EAUG   =  644.873                                                                                
   DEXC   =    0.000                                                                                
   RMAX   =    1.529    core radius for proj-oper                                                   
   RAUG   =    1.300    factor for augmentation sphere                                              
   RDEP   =    1.501    radius for radial grids                                                     
   RDEPT  =    1.300    core radius for aug-charge                                                  
                                                                                                    
   Atomic configuration                                                                             
    4 entries                                                                                       
     n  l   j            E        occ.                                                              
     1  0  0.50      -273.3789   2.0000                                                             
     2  0  0.50       -13.7508   2.0000                                                             
     2  1  0.50        -5.2854   2.0000                                                             
     3  2  1.50        -5.4423   0.0000                                                             
   Description                                                                                      
     l       E           TYP  RCUT    TYP  RCUT                                                     
     0    -13.7508458     23  1.200                                                                 
     0     -8.2022199     23  1.200                                                                 
     1     -5.2854383     23  1.500                                                                 
     1     34.0145650     23  1.500                                                                 
     2     -5.4423304      7  1.500                                                                 
  local pseudopotential read in
  partial core-charges read in
  partial kinetic energy density read in
  atomic valenz-charges read in
  non local Contribution for L=           0  read in
    real space projection operators read in
  non local Contribution for L=           0  read in
    real space projection operators read in
  non local Contribution for L=           1  read in
    real space projection operators read in
  non local Contribution for L=           1  read in
    real space projection operators read in
    PAW grid and wavefunctions read in
 
   number of l-projection  operators is LMAX  =           4
   number of lm-projection operators is LMMAX =           8
 
  PAW_PBE C 08Apr2002                   :
 energy of atom  1       EATOM= -147.1560
 kinetic energy error for atom=    0.0057 (will be added to EATOM!!)
 
 
 POSCAR:  C
  positions in direct lattice
  No initial velocities read in
 exchange correlation table for  LEXCH =        8
   RHO(1)=    0.500       N(1)  =     2000
   RHO(2)=  100.500       N(2)  =     4000
 


--------------------------------------------------------------------------------------------------------


 ion  position               nearest neighbor table
   1  0.333  0.333  0.500-   2 1.20   2 1.64   2 1.75
   2  0.667  0.667  0.500-   1 1.20   1 1.64   1 1.75
 
  LATTYP: Found a simple monoclinic cell.
 ALAT       =     2.2843274263
 B/A-ratio  =     8.7553122946
 C/A-ratio  =     1.1028904302
 COS(beta)  =    -0.1267480308
  
  Lattice vectors:
  
 A1 = (   1.7437250000,  -1.4756608400,   0.0000000000)
 A2 = (   0.0000000000,   0.0000000000, -20.0000000000)
 A3 = (   1.3706125000,   2.1139088400,   0.0000000000)


Analysis of symmetry for initial positions (statically):
=====================================================================
 Subroutine PRICEL returns:
 Original cell was already a primitive cell.
 

 Routine SETGRP: Setting up the symmetry group for a 
 simple monoclinic supercell.


 Subroutine GETGRP returns: Found  4 space group operations
 (whereof  4 operations were pure point group operations)
 out of a pool of  4 trial point group operations.


The static configuration has the point symmetry C_2h.


Analysis of symmetry for dynamics (positions and initial velocities):
=====================================================================
 Subroutine PRICEL returns:
 Original cell was already a primitive cell.
 

 Routine SETGRP: Setting up the symmetry group for a 
 simple monoclinic supercell.


 Subroutine GETGRP returns: Found  4 space group operations
 (whereof  4 operations were pure point group operations)
 out of a pool of  4 trial point group operations.


The dynamic configuration has the point symmetry C_2h.


Analysis of constrained symmetry for selective dynamics:
=====================================================================
 Subroutine PRICEL returns:
 Original cell was already a primitive cell.
 

 Routine SETGRP: Setting up the symmetry group for a 
 simple monoclinic supercell.


 Subroutine GETGRP returns: Found  4 space group operations
 (whereof  4 operations were pure point group operations)
 out of a pool of  4 trial point group operations.


The constrained configuration has the point symmetry C_2h.


 Subroutine INISYM returns: Found  4 space group operations
 (whereof  4 operations are pure point group operations),
 and found     1 'primitive' translations


----------------------------------------------------------------------------------------

                                     Primitive cell                                     

  volume of cell :     114.1727

  direct lattice vectors                    reciprocal lattice vectors
     1.743725000 -1.475660840  0.000000000     0.111803962 -0.545548553  0.000000000
     3.114337500  0.638248000  0.000000000     0.258496273  0.305453937  0.000000000
     0.000000000  0.000000000 20.000000000     0.000000000  0.000000000  0.050000000

  length of vectors
     2.284327426  3.179065676 20.000000000     0.556887196  0.400153009  0.050000000

  position of ions in fractional coordinates (direct lattice)
     0.333333333  0.333333333  0.500000000
     0.666666667  0.666666667  0.500000000

  ion indices of the primitive-cell ions
   primitive index   ion index
                 1           1
                 2           2

----------------------------------------------------------------------------------------

 
 
 KPOINTS: KPOINTS created by Atomic Simulation Env

Automatic generation of k-mesh.
 Grid dimensions read from file:
 generate k-points for:    4    4    1

 Generating k-lattice:

  Cartesian coordinates                     Fractional coordinates (reciprocal lattice)
     0.027950991 -0.136387138  0.000000000     0.250000000  0.000000000  0.000000000
     0.064624068  0.076363484  0.000000000     0.000000000  0.250000000  0.000000000
     0.000000000  0.000000000  0.050000000     0.000000000  0.000000000  1.000000000

  Length of vectors
     0.139221799  0.100038252  0.050000000

  Shift w.r.t. Gamma in fractional coordinates (k-lattice)
     0.500000000  0.500000000  0.000000000

 
 Subroutine IBZKPT returns following result:
 ===========================================
 
 Found      8 irreducible k-points:
 
 Following reciprocal coordinates:
            Coordinates               Weight
  0.125000  0.125000  0.000000      2.000000
  0.375000  0.125000  0.000000      2.000000
 -0.375000  0.125000  0.000000      2.000000
 -0.125000  0.125000  0.000000      2.000000
  0.125000  0.375000  0.000000      2.000000
  0.375000  0.375000  0.000000      2.000000
 -0.375000  0.375000  0.000000      2.000000
 -0.125000  0.375000  0.000000      2.000000
 
 Following cartesian coordinates:
            Coordinates               Weight
  0.046288 -0.030012  0.000000      2.000000
  0.074239 -0.166399  0.000000      2.000000
 -0.009614  0.242762  0.000000      2.000000
  0.018337  0.106375  0.000000      2.000000
  0.110912  0.046352  0.000000      2.000000
  0.138863 -0.090035  0.000000      2.000000
  0.055010  0.319126  0.000000      2.000000
  0.082961  0.182739  0.000000      2.000000
 


--------------------------------------------------------------------------------------------------------




 Dimension of arrays:
   k-points           NKPTS =      8   k-points in BZ     NKDIM =      8   number of bands    NBANDS=      8
   number of dos      NEDOS =    301   number of ions     NIONS =      2
   non local maximal  LDIM  =      4   non local SUM 2l+1 LMDIM =      8
   total plane-waves  NPLWV =  80640
   max r-space proj   IRMAX =      1   max aug-charges    IRDMAX=   8533
   dimension x,y,z NGX =    18 NGY =   28 NGZ =  160
   dimension x,y,z NGXF=    36 NGYF=   56 NGZF=  320
   support grid    NGXF=    36 NGYF=   56 NGZF=  320
   ions per type =               2
   NGX,Y,Z   is equivalent  to a cutoff of  13.10, 14.64, 13.30 a.u.
   NGXF,Y,Z  is equivalent  to a cutoff of  26.20, 29.28, 26.60 a.u.

 SYSTEM =  unknown system                          
 POSCAR =   C                                      

 Startparameter for this run:
   NWRITE =      2    write-flag & timer
   PREC   = accura    normal or accurate (medium, high low for compatibility)
   ISTART =      0    job   : 0-new  1-cont  2-samecut
   ICHARG =      2    charge: 1-file 2-atom 10-const
   ISPIN  =      1    spin polarized calculation?
   LNONCOLLINEAR =      F non collinear calculations
   LSORBIT =      F    spin-orbit coupling
   INIWAV =      1    electr: 0-lowe 1-rand  2-diag
   LASPH  =      F    aspherical Exc in radial PAW
 Electronic Relaxation 1
   ENCUT  =  600.0 eV  44.10 Ry    6.64 a.u.   4.56  6.35 39.94*2*pi/ulx,y,z
   ENINI  =  600.0     initial cutoff
   ENAUG  =  644.9 eV  augmentation charge cutoff
   NELM   =     60;   NELMIN=  2; NELMDL= -5     # of ELM steps 
   EDIFF  = 0.1E-05   stopping-criterion for ELM
   LREAL  =      F    real-space projection
   NLSPLINE    = F    spline interpolate recip. space projectors
   LCOMPAT=      F    compatible to vasp.4.4
   GGA_COMPAT  = T    GGA compatible to vasp.4.4-vasp.4.6
   LMAXPAW     = -100 max onsite density
   LMAXMIX     =    2 max onsite mixed and CHGCAR
   VOSKOWN=      0    Vosko Wilk Nusair interpolation
   ROPT   =    0.00000
 Ionic relaxation
   EDIFFG = 0.1E-04   stopping-criterion for IOM
   NSW    =    300    number of steps for IOM
   NBLOCK =      1;   KBLOCK =    300    inner block; outer block 
   IBRION =      2    ionic relax: 0-MD 1-quasi-New 2-CG
   NFREE  =      1    steps in history (QN), initial steepest desc. (CG)
   ISIF   =      2    stress and relaxation
   IWAVPR =     11    prediction:  0-non 1-charg 2-wave 3-comb
   ISYM   =      2    0-nonsym 1-usesym 2-fastsym
   LCORR  =      T    Harris-Foulkes like correction to forces

   POTIM  = 0.5000    time-step for ionic-motion
   TEIN   =    0.0    initial temperature
   TEBEG  =    0.0;   TEEND  =   0.0 temperature during run
   SMASS  =  -3.00    Nose mass-parameter (am)
   estimated Nose-frequenzy (Omega)   =  0.10E-29 period in steps = 0.13E+47 mass=  -0.119E-27a.u.
   SCALEE = 1.0000    scale energy and forces
   NPACO  =    256;   APACO  = 16.0  distance and # of slots for P.C.
   PSTRESS=    0.0 pullay stress

  Mass of Ions in am
   POMASS =  12.01
  Ionic Valenz
   ZVAL   =   4.00
  Atomic Wigner-Seitz radii
   RWIGS  =  -1.00
  virtual crystal weights 
   VCA    =   1.00
   NELECT =       8.0000    total number of electrons
   NUPDOWN=      -1.0000    fix difference up-down

 DOS related values:
   EMIN   =  10.00;   EMAX   =-10.00  energy-range for DOS
   EFERMI =   0.00
   ISMEAR =     0;   SIGMA  =   0.10  broadening in eV -4-tet -1-fermi 0-gaus

 Electronic relaxation 2 (details)
   IALGO  =     38    algorithm
   LDIAG  =      T    sub-space diagonalisation (order eigenvalues)
   LSUBROT=      F    optimize rotation matrix (better conditioning)
   TURBO    =      0    0=normal 1=particle mesh
   IRESTART =      0    0=no restart 2=restart with 2 vectors
   NREBOOT  =      0    no. of reboots
   NMIN     =      0    reboot dimension
   EREF     =   0.00    reference energy to select bands
   IMIX   =      4    mixing-type and parameters
     AMIX     =   0.40;   BMIX     =  1.00
     AMIX_MAG =   1.60;   BMIX_MAG =  1.00
     AMIN     =   0.10
     WC   =   100.;   INIMIX=   1;  MIXPRE=   1;  MAXMIX= -45

 Intra band minimization:
   WEIMIN = 0.0010     energy-eigenvalue tresh-hold
   EBREAK =  0.31E-07  absolut break condition
   DEPER  =   0.30     relativ break condition  

   TIME   =   0.40     timestep for ELM

  volume/ion in A,a.u.               =      57.09       385.24
  Fermi-wavevector in a.u.,A,eV,Ry     =   0.674918  1.275409  6.197641  0.455514
  Thomas-Fermi vector in A             =   1.751779
 
 Write flags
   LWAVE        =      F    write WAVECAR
   LDOWNSAMPLE  =      F    k-point downsampling of WAVECAR
   LCHARG       =      F    write CHGCAR
   LVTOT        =      F    write LOCPOT, total local potential
   LVHAR        =      F    write LOCPOT, Hartree potential only
   LELF         =      F    write electronic localiz. function (ELF)
   LORBIT       =      0    0 simple, 1 ext, 2 COOP (PROOUT), +10 PAW based schemes


 Dipole corrections
   LMONO  =      F    monopole corrections only (constant potential shift)
   LDIPOL =      F    correct potential (dipole corrections)
   IDIPOL =      0    1-x, 2-y, 3-z, 4-all directions 
   EPSILON=  1.0000000 bulk dielectric constant

 Exchange correlation treatment:
   GGA     =    --    GGA type
   LEXCH   =     8    internal setting for exchange type
   VOSKOWN=      0    Vosko Wilk Nusair interpolation
   LHFCALC =     F    Hartree Fock is set to
   LHFONE  =     F    Hartree Fock one center treatment
   AEXX    =    0.0000 exact exchange contribution

 Linear response parameters
   LEPSILON=     F    determine dielectric tensor
   LRPA    =     F    only Hartree local field effects (RPA)
   LNABLA  =     F    use nabla operator in PAW spheres
   LVEL    =     F    velocity operator in full k-point grid
   LINTERFAST=   F  fast interpolation
   KINTER  =     0    interpolate to denser k-point grid
   CSHIFT  =0.1000    complex shift for real part using Kramers Kronig
   OMEGAMAX=  -1.0    maximum frequency
   DEG_THRESHOLD= 0.2000000E-02 threshold for treating states as degnerate
   RTIME   =   -0.100 relaxation time in fs
  (WPLASMAI=    0.000 imaginary part of plasma frequency in eV, 0.658/RTIME)
   DFIELD  = 0.0000000 0.0000000 0.0000000 field for delta impulse in time
 
 Orbital magnetization related:
   ORBITALMAG=     F  switch on orbital magnetization
   LCHIMAG   =     F  perturbation theory with respect to B field
   DQ        =  0.001000  dq finite difference perturbation B field
   LLRAUG    =     F  two centre corrections for induced B field



--------------------------------------------------------------------------------------------------------


 conjugate gradient relaxation of ions
   using selective dynamics as specified on POSCAR
 charge density and potential will be updated during run
 non-spin polarized calculation
 Variant of blocked Davidson
 Davidson routine will perform the subspace rotation
 perform sub-space diagonalisation
    after iterative eigenvector-optimisation
 modified Broyden-mixing scheme, WC =      100.0
 initial mixing is a Kerker type mixing with AMIX =  0.4000 and BMIX =      1.0000
 Hartree-type preconditioning will be used
 using additional bands            4
 reciprocal scheme for non local part
 use partial core corrections
 calculate Harris-corrections to forces 
   (improved forces if not selfconsistent)
 use gradient corrections 
 use of overlap-Matrix (Vanderbilt PP)
 Gauss-broadening in eV      SIGMA  =   0.10


--------------------------------------------------------------------------------------------------------


  energy-cutoff  :      600.00
  volume of cell :      114.17
      direct lattice vectors                 reciprocal lattice vectors
     1.743725000 -1.475660840  0.000000000     0.111803962 -0.545548553  0.000000000
     3.114337500  0.638248000  0.000000000     0.258496273  0.305453937  0.000000000
     0.000000000  0.000000000 20.000000000     0.000000000  0.000000000  0.050000000

  length of vectors
     2.284327426  3.179065676 20.000000000     0.556887196  0.400153009  0.050000000


 
 k-points in units of 2pi/SCALE and weight: KPOINTS created by Atomic Simulation Env
   0.04628753 -0.03001183  0.00000000       0.125
   0.07423852 -0.16639897  0.00000000       0.125
  -0.00961445  0.24276245  0.00000000       0.125
   0.01833654  0.10637531  0.00000000       0.125
   0.11091160  0.04635166  0.00000000       0.125
   0.13886259 -0.09003548  0.00000000       0.125
   0.05500962  0.31912593  0.00000000       0.125
   0.08296061  0.18273880  0.00000000       0.125
 
 k-points in reciprocal lattice and weights: KPOINTS created by Atomic Simulation Env
   0.12500000  0.12500000  0.00000000       0.125
   0.37500000  0.12500000  0.00000000       0.125
  -0.37500000  0.12500000  0.00000000       0.125
  -0.12500000  0.12500000  0.00000000       0.125
   0.12500000  0.37500000  0.00000000       0.125
   0.37500000  0.37500000  0.00000000       0.125
  -0.37500000  0.37500000  0.00000000       0.125
  -0.12500000  0.37500000  0.00000000       0.125
 
 position of ions in fractional coordinates (direct lattice) 
   0.33333333  0.33333333  0.50000000
   0.66666667  0.66666667  0.50000000
 
 position of ions in cartesian coordinates  (Angst):
   1.61935417 -0.27913761 10.00000000
   3.23870833 -0.55827523 10.00000000
 


--------------------------------------------------------------------------------------------------------


 k-point   1 :   0.1250 0.1250 0.0000  plane waves:    3807
 k-point   2 :   0.3750 0.1250 0.0000  plane waves:    3822
 k-point   3 :  -0.3750 0.1250 0.0000  plane waves:    3811
 k-point   4 :  -0.1250 0.1250 0.0000  plane waves:    3842
 k-point   5 :   0.1250 0.3750 0.0000  plane waves:    3817
 k-point   6 :   0.3750 0.3750 0.0000  plane waves:    3749
 k-point   7 :  -0.3750 0.3750 0.0000  plane waves:    3795
 k-point   8 :  -0.1250 0.3750 0.0000  plane waves:    3852

 maximum and minimum number of plane-waves per node :      3852     3749

 maximum number of plane-waves:      3852
 maximum index in each direction: 
   IXMAX=    4   IYMAX=    6   IZMAX=   39
   IXMIN=   -4   IYMIN=   -6   IZMIN=  -39


 serial   3D FFT for wavefunctions

 total amount of memory used by VASP MPI-rank0    64061. kBytes
=======================================================================

   base      :      30000. kBytes
   nonl-proj :       2095. kBytes
   fftplans  :      11199. kBytes
   grid      :      18781. kBytes
   one-center:          6. kBytes
   wavefun   :       1980. kBytes
 
     INWAV:  cpu time    0.0000: real time    0.0000
 Broyden mixing: mesh for mixing (old mesh)
   NGX =  9   NGY = 13   NGZ = 79
  (NGX  = 36   NGY  = 56   NGZ  =320)
  gives a total of   9243 points

 initial charge density was supplied:
 charge density of overlapping atoms calculated
 number of electron       8.0000000 magnetization 
 keeping initial charge density in first step


--------------------------------------------------------------------------------------------------------


 Maximum index for augmentation-charges         4022 (set IRDMAX)


--------------------------------------------------------------------------------------------------------


 First call to EWALD:  gamma=   0.365
 Maximum number of real-space cells 7x 5x 1
 Maximum number of reciprocal cells 2x 2x10

    FEWALD:  cpu time    0.0009: real time    0.0009


--------------------------------------- Iteration      1(   1)  ---------------------------------------


    POTLOK:  cpu time    0.0917: real time    0.0917
    SETDIJ:  cpu time    0.0006: real time    0.0006
     EDDAV:  cpu time    0.1327: real time    0.1327
       DOS:  cpu time    0.0001: real time    0.0001
    --------------------------------------------
      LOOP:  cpu time    0.2251: real time    0.2251

 eigenvalue-minimisations  :   128
 total energy-change (2. order) : 0.6255956E+02  (-0.3651517E+03)
 number of electron       8.0000000 magnetization 
 augmentation part        8.0000000 magnetization 

 Free energy of the ion-electron system (eV)
  ---------------------------------------------------
  alpha Z        PSCENC =         2.87798108
  Ewald energy   TEWEN  =      1180.87015617
  -Hartree energ DENC   =     -1394.35793315
  -exchange      EXHF   =         0.00000000
  -V(xc)+E(xc)   XCENC  =        25.89946703
  PAW double counting   =       217.04409276     -218.18290438
  entropy T*S    EENTRO =        -0.00978209
  eigenvalues    EBANDS =       -45.88209751
  atomic energy  EATOM  =       294.30057552
  Solvation  Ediel_sol  =         0.00000000
  ---------------------------------------------------
  free energy    TOTEN  =        62.55955542 eV

  energy without entropy =       62.56933751  energy(sigma->0) =       62.56444647


--------------------------------------------------------------------------------------------------------




--------------------------------------- Iteration      1(   2)  ---------------------------------------


     EDDAV:  cpu time    0.2038: real time    0.2038
       DOS:  cpu time    0.0001: real time    0.0001
    --------------------------------------------
      LOOP:  cpu time    0.2039: real time    0.2039

 eigenvalue-minimisations  :   208
 total energy-change (2. order) :-0.7386561E+02  (-0.6354144E+02)
 number of electron       8.0000000 magnetization 
 augmentation part        8.0000000 magnetization 

 Free energy of the ion-electron system (eV)
  ---------------------------------------------------
  alpha Z        PSCENC =         2.87798108
  Ewald energy   TEWEN  =      1180.87015617
  -Hartree energ DENC   =     -1394.35793315
  -exchange      EXHF   =         0.00000000
  -V(xc)+E(xc)   XCENC  =        25.89946703
  PAW double counting   =       217.04409276     -218.18290438
  entropy T*S    EENTRO =        -0.00000000
  eigenvalues    EBANDS =      -119.75749206
  atomic energy  EATOM  =       294.30057552
  Solvation  Ediel_sol  =         0.00000000
  ---------------------------------------------------
  free energy    TOTEN  =       -11.30605704 eV

  energy without entropy =      -11.30605704  energy(sigma->0) =      -11.30605704


--------------------------------------------------------------------------------------------------------




--------------------------------------- Iteration      1(   3)  ---------------------------------------


     EDDAV:  cpu time    0.2017: real time    0.2017
       DOS:  cpu time    0.0001: real time    0.0001
    --------------------------------------------
      LOOP:  cpu time    0.2018: real time    0.2018

 eigenvalue-minimisations  :   160
 total energy-change (2. order) :-0.4896829E+01  (-0.4896829E+01)
 number of electron       8.0000000 magnetization 
 augmentation part        8.0000000 magnetization 

 Free energy of the ion-electron system (eV)
  ---------------------------------------------------
  alpha Z        PSCENC =         2.87798108
  Ewald energy   TEWEN  =      1180.87015617
  -Hartree energ DENC   =     -1394.35793315
  -exchange      EXHF   =         0.00000000
  -V(xc)+E(xc)   XCENC  =        25.89946703
  PAW double counting   =       217.04409276     -218.18290438
  entropy T*S    EENTRO =        -0.00000000
  eigenvalues    EBANDS =      -124.65432078
  atomic energy  EATOM  =       294.30057552
  Solvation  Ediel_sol  =         0.00000000
  ---------------------------------------------------
  free energy    TOTEN  =       -16.20288576 eV

  energy without entropy =      -16.20288576  energy(sigma->0) =      -16.20288576


--------------------------------------------------------------------------------------------------------




--------------------------------------- Iteration      1(   4)  ---------------------------------------


     EDDAV:  cpu time    0.2737: real time    0.2737
       DOS:  cpu time    0.0001: real time    0.0001
    --------------------------------------------
      LOOP:  cpu time    0.2738: real time    0.2738

 eigenvalue-minimisations  :   224
 total energy-change (2. order) :-0.5098486E-01  (-0.5098486E-01)
 number of electron       8.0000000 magnetization 
 augmentation part        8.0000000 magnetization 

 Free energy of the ion-electron system (eV)
  ---------------------------------------------------
  alpha Z        PSCENC =         2.87798108
  Ewald energy   TEWEN  =      1180.87015617
  -Hartree energ DENC   =     -1394.35793315
  -exchange      EXHF   =         0.00000000
  -V(xc)+E(xc)   XCENC  =        25.89946703
  PAW double counting   =       217.04409276     -218.18290438
  entropy T*S    EENTRO =        -0.00000000
  eigenvalues    EBANDS =      -124.70530565
  atomic energy  EATOM  =       294.30057552
  Solvation  Ediel_sol  =         0.00000000
  ---------------------------------------------------
  free energy    TOTEN  =       -16.25387062 eV

  energy without entropy =      -16.25387062  energy(sigma->0) =      -16.25387062


--------------------------------------------------------------------------------------------------------




--------------------------------------- Iteration      1(   5)  ---------------------------------------


     EDDAV:  cpu time    0.2465: real time    0.2465
       DOS:  cpu time    0.0001: real time    0.0001
    CHARGE:  cpu time    0.0242: real time    0.0242
    MIXING:  cpu time    0.0038: real time    0.0038
    --------------------------------------------
      LOOP:  cpu time    0.2747: real time    0.2747

 eigenvalue-minimisations  :   184
 total energy-change (2. order) :-0.5554583E-04  (-0.5554583E-04)
 number of electron       8.0000001 magnetization 
 augmentation part        0.2058318 magnetization 

 Broyden mixing:
  rms(total) = 0.74804E+00    rms(broyden)= 0.74801E+00
  rms(prec ) = 0.80105E+00
  weight for this iteration     100.00

 Free energy of the ion-electron system (eV)
  ---------------------------------------------------
  alpha Z        PSCENC =         2.87798108
  Ewald energy   TEWEN  =      1180.87015617
  -Hartree energ DENC   =     -1394.35793315
  -exchange      EXHF   =         0.00000000
  -V(xc)+E(xc)   XCENC  =        25.89946703
  PAW double counting   =       217.04409276     -218.18290438
  entropy T*S    EENTRO =        -0.00000000
  eigenvalues    EBANDS =      -124.70536119
  atomic energy  EATOM  =       294.30057552
  Solvation  Ediel_sol  =         0.00000000
  ---------------------------------------------------
  free energy    TOTEN  =       -16.25392617 eV

  energy without entropy =      -16.25392617  energy(sigma->0) =      -16.25392617


--------------------------------------------------------------------------------------------------------




--------------------------------------- Iteration      1(   6)  ---------------------------------------


    POTLOK:  cpu time    0.1123: real time    0.1123
    SETDIJ:  cpu time    0.0019: real time    0.0019
     EDDAV:  cpu time    0.2805: real time    0.2805
       DOS:  cpu time    0.0001: real time    0.0001
    CHARGE:  cpu time    0.0237: real time    0.0237
    MIXING:  cpu time    0.0029: real time    0.0029
    --------------------------------------------
      LOOP:  cpu time    0.4214: real time    0.4214

 eigenvalue-minimisations  :   208
 total energy-change (2. order) : 0.1431205E+01  (-0.1752828E+00)
 number of electron       8.0000000 magnetization 
 augmentation part        0.1925705 magnetization 

 Broyden mixing:
  rms(total) = 0.40027E+00    rms(broyden)= 0.40026E+00
  rms(prec ) = 0.42449E+00
  weight for this iteration     100.00

 eigenvalues of (default mixing * dielectric matrix)
  average eigenvalue GAMMA=   2.0047
  2.0047

 Free energy of the ion-electron system (eV)
  ---------------------------------------------------
  alpha Z        PSCENC =         2.87798108
  Ewald energy   TEWEN  =      1180.87015617
  -Hartree energ DENC   =     -1405.85955721
  -exchange      EXHF   =         0.00000000
  -V(xc)+E(xc)   XCENC  =        26.42615805
  PAW double counting   =       385.28998290     -386.59393592
  entropy T*S    EENTRO =        -0.00000000
  eigenvalues    EBANDS =      -112.13408174
  atomic energy  EATOM  =       294.30057552
  Solvation  Ediel_sol  =         0.00000000
  ---------------------------------------------------
  free energy    TOTEN  =       -14.82272116 eV

  energy without entropy =      -14.82272116  energy(sigma->0) =      -14.82272116


--------------------------------------------------------------------------------------------------------




--------------------------------------- Iteration      1(   7)  ---------------------------------------


    POTLOK:  cpu time    0.1125: real time    0.1125
    SETDIJ:  cpu time    0.0020: real time    0.0020
     EDDAV:  cpu time    0.2953: real time    0.2953
       DOS:  cpu time    0.0001: real time    0.0001
    CHARGE:  cpu time    0.0215: real time    0.0215
    MIXING:  cpu time    0.0027: real time    0.0027
    --------------------------------------------
      LOOP:  cpu time    0.4341: real time    0.4341

 eigenvalue-minimisations  :   200
 total energy-change (2. order) : 0.4237404E+00  (-0.1677933E+00)
 number of electron       8.0000000 magnetization 
 augmentation part        0.1794537 magnetization 

 Broyden mixing:
  rms(total) = 0.10883E+00    rms(broyden)= 0.10881E+00
  rms(prec ) = 0.11219E+00
  weight for this iteration     100.00

 eigenvalues of (default mixing * dielectric matrix)
  average eigenvalue GAMMA=   2.3120
  1.9693  2.6548

 Free energy of the ion-electron system (eV)
  ---------------------------------------------------
  alpha Z        PSCENC =         2.87798108
  Ewald energy   TEWEN  =      1180.87015617
  -Hartree energ DENC   =     -1419.19395248
  -exchange      EXHF   =         0.00000000
  -V(xc)+E(xc)   XCENC  =        27.02844557
  PAW double counting   =       669.71581906     -671.14813569
  entropy T*S    EENTRO =        -0.00000000
  eigenvalues    EBANDS =       -98.84987001
  atomic energy  EATOM  =       294.30057552
  Solvation  Ediel_sol  =         0.00000000
  ---------------------------------------------------
  free energy    TOTEN  =       -14.39898078 eV

  energy without entropy =      -14.39898078  energy(sigma->0) =      -14.39898078


--------------------------------------------------------------------------------------------------------




--------------------------------------- Iteration      1(   8)  ---------------------------------------


    POTLOK:  cpu time    0.1015: real time    0.1015
    SETDIJ:  cpu time    0.0016: real time    0.0016
     EDDAV:  cpu time    0.2272: real time    0.2272
       DOS:  cpu time    0.0001: real time    0.0001
    CHARGE:  cpu time    0.0176: real time    0.0176
    MIXING:  cpu time    0.0023: real time    0.0023
    --------------------------------------------
      LOOP:  cpu time    0.3503: real time    0.3503

 eigenvalue-minimisations  :   216
 total energy-change (2. order) : 0.7776230E-02  (-0.4104632E-02)
 number of electron       8.0000000 magnetization 
 augmentation part        0.1799668 magnetization 

 Broyden mixing:
  rms(total) = 0.15516E-01    rms(broyden)= 0.15512E-01
  rms(prec ) = 0.20734E-01
  weight for this iteration     100.00

 eigenvalues of (default mixing * dielectric matrix)
  average eigenvalue GAMMA=   1.8554
  1.2887  2.5133  1.7642

 Free energy of the ion-electron system (eV)
  ---------------------------------------------------
  alpha Z        PSCENC =         2.87798108
  Ewald energy   TEWEN  =      1180.87015617
  -Hartree energ DENC   =     -1421.50696442
  -exchange      EXHF   =         0.00000000
  -V(xc)+E(xc)   XCENC  =        27.04780711
  PAW double counting   =       792.51724202     -793.90181676
  entropy T*S    EENTRO =        -0.00000000
  eigenvalues    EBANDS =       -96.59618527
  atomic energy  EATOM  =       294.30057552
  Solvation  Ediel_sol  =         0.00000000
  ---------------------------------------------------
  free energy    TOTEN  =       -14.39120455 eV

  energy without entropy =      -14.39120455  energy(sigma->0) =      -14.39120455


--------------------------------------------------------------------------------------------------------




--------------------------------------- Iteration      1(   9)  ---------------------------------------


    POTLOK:  cpu time    0.1114: real time    0.1114
    SETDIJ:  cpu time    0.0032: real time    0.0032
     EDDAV:  cpu time    0.2608: real time    0.2608
       DOS:  cpu time    0.0001: real time    0.0001
    CHARGE:  cpu time    0.0173: real time    0.0173
    MIXING:  cpu time    0.0023: real time    0.0023
    --------------------------------------------
      LOOP:  cpu time    0.3950: real time    0.3951

 eigenvalue-minimisations  :   208
 total energy-change (2. order) : 0.9326116E-03  (-0.2599046E-03)
 number of electron       8.0000000 magnetization 
 augmentation part        0.1795821 magnetization 

 Broyden mixing:
  rms(total) = 0.81834E-02    rms(broyden)= 0.81825E-02
  rms(prec ) = 0.13976E-01
  weight for this iteration     100.00

 eigenvalues of (default mixing * dielectric matrix)
  average eigenvalue GAMMA=   2.0614
  1.1260  2.6787  2.6787  1.7622

 Free energy of the ion-electron system (eV)
  ---------------------------------------------------
  alpha Z        PSCENC =         2.87798108
  Ewald energy   TEWEN  =      1180.87015617
  -Hartree energ DENC   =     -1422.35823283
  -exchange      EXHF   =         0.00000000
  -V(xc)+E(xc)   XCENC  =        27.06956789
  PAW double counting   =       786.39581304     -787.78672089
  entropy T*S    EENTRO =        -0.00000000
  eigenvalues    EBANDS =       -95.75941192
  atomic energy  EATOM  =       294.30057552
  Solvation  Ediel_sol  =         0.00000000
  ---------------------------------------------------
  free energy    TOTEN  =       -14.39027193 eV

  energy without entropy =      -14.39027193  energy(sigma->0) =      -14.39027193


--------------------------------------------------------------------------------------------------------




--------------------------------------- Iteration      1(  10)  ---------------------------------------


    POTLOK:  cpu time    0.0918: real time    0.0918
    SETDIJ:  cpu time    0.0015: real time    0.0015
     EDDAV:  cpu time    0.2024: real time    0.2024
       DOS:  cpu time    0.0001: real time    0.0001
    CHARGE:  cpu time    0.0172: real time    0.0172
    MIXING:  cpu time    0.0023: real time    0.0023
    --------------------------------------------
      LOOP:  cpu time    0.3153: real time    0.3153

 eigenvalue-minimisations  :   200
 total energy-change (2. order) : 0.9449135E-03  (-0.9168132E-04)
 number of electron       8.0000000 magnetization 
 augmentation part        0.1794988 magnetization 

 Broyden mixing:
  rms(total) = 0.42442E-02    rms(broyden)= 0.42439E-02
  rms(prec ) = 0.75989E-02
  weight for this iteration     100.00

 eigenvalues of (default mixing * dielectric matrix)
  average eigenvalue GAMMA=   1.9379
  3.1298  2.3950  1.7775  1.0650  1.3223

 Free energy of the ion-electron system (eV)
  ---------------------------------------------------
  alpha Z        PSCENC =         2.87798108
  Ewald energy   TEWEN  =      1180.87015617
  -Hartree energ DENC   =     -1424.12419520
  -exchange      EXHF   =         0.00000000
  -V(xc)+E(xc)   XCENC  =        27.08570843
  PAW double counting   =       776.55513925     -777.94240205
  entropy T*S    EENTRO =        -0.00000000
  eigenvalues    EBANDS =       -94.01229022
  atomic energy  EATOM  =       294.30057552
  Solvation  Ediel_sol  =         0.00000000
  ---------------------------------------------------
  free energy    TOTEN  =       -14.38932702 eV

  energy without entropy =      -14.38932702  energy(sigma->0) =      -14.38932702


--------------------------------------------------------------------------------------------------------




--------------------------------------- Iteration      1(  11)  ---------------------------------------


    POTLOK:  cpu time    0.0914: real time    0.0914
    SETDIJ:  cpu time    0.0015: real time    0.0015
     EDDAV:  cpu time    0.1945: real time    0.1946
       DOS:  cpu time    0.0001: real time    0.0001
    CHARGE:  cpu time    0.0174: real time    0.0174
    MIXING:  cpu time    0.0024: real time    0.0024
    --------------------------------------------
      LOOP:  cpu time    0.3073: real time    0.3073

 eigenvalue-minimisations  :   192
 total energy-change (2. order) : 0.3221883E-04  (-0.2855426E-04)
 number of electron       8.0000000 magnetization 
 augmentation part        0.1793823 magnetization 

 Broyden mixing:
  rms(total) = 0.33988E-02    rms(broyden)= 0.33987E-02
  rms(prec ) = 0.54448E-02
  weight for this iteration     100.00

 eigenvalues of (default mixing * dielectric matrix)
  average eigenvalue GAMMA=   2.5572
  5.8509  3.0243  2.5855  1.8203  1.0779  0.9843

 Free energy of the ion-electron system (eV)
  ---------------------------------------------------
  alpha Z        PSCENC =         2.87798108
  Ewald energy   TEWEN  =      1180.87015617
  -Hartree energ DENC   =     -1425.00175786
  -exchange      EXHF   =         0.00000000
  -V(xc)+E(xc)   XCENC  =        27.09642909
  PAW double counting   =       781.58650238     -782.97294342
  entropy T*S    EENTRO =        -0.00000000
  eigenvalues    EBANDS =       -93.14623776
  atomic energy  EATOM  =       294.30057552
  Solvation  Ediel_sol  =         0.00000000
  ---------------------------------------------------
  free energy    TOTEN  =       -14.38929480 eV

  energy without entropy =      -14.38929480  energy(sigma->0) =      -14.38929480


--------------------------------------------------------------------------------------------------------




--------------------------------------- Iteration      1(  12)  ---------------------------------------


    POTLOK:  cpu time    0.0925: real time    0.0925
    SETDIJ:  cpu time    0.0015: real time    0.0015
     EDDAV:  cpu time    0.1766: real time    0.1766
       DOS:  cpu time    0.0001: real time    0.0001
    CHARGE:  cpu time    0.0174: real time    0.0174
    MIXING:  cpu time    0.0031: real time    0.0031
    --------------------------------------------
      LOOP:  cpu time    0.2911: real time    0.2912

 eigenvalue-minimisations  :   168
 total energy-change (2. order) :-0.5849941E-03  (-0.3817439E-04)
 number of electron       8.0000000 magnetization 
 augmentation part        0.1792719 magnetization 

 Broyden mixing:
  rms(total) = 0.19679E-02    rms(broyden)= 0.19678E-02
  rms(prec ) = 0.22932E-02
  weight for this iteration     100.00

 eigenvalues of (default mixing * dielectric matrix)
  average eigenvalue GAMMA=   2.2856
  5.9754  2.6469  2.5952  1.8033  1.1594  0.9401  0.8790

 Free energy of the ion-electron system (eV)
  ---------------------------------------------------
  alpha Z        PSCENC =         2.87798108
  Ewald energy   TEWEN  =      1180.87015617
  -Hartree energ DENC   =     -1426.31308854
  -exchange      EXHF   =         0.00000000
  -V(xc)+E(xc)   XCENC  =        27.10294722
  PAW double counting   =       779.65998815     -781.04762379
  entropy T*S    EENTRO =        -0.00000000
  eigenvalues    EBANDS =       -91.84081560
  atomic energy  EATOM  =       294.30057552
  Solvation  Ediel_sol  =         0.00000000
  ---------------------------------------------------
  free energy    TOTEN  =       -14.38987980 eV

  energy without entropy =      -14.38987980  energy(sigma->0) =      -14.38987980


--------------------------------------------------------------------------------------------------------




--------------------------------------- Iteration      1(  13)  ---------------------------------------


    POTLOK:  cpu time    0.0945: real time    0.0946
    SETDIJ:  cpu time    0.0017: real time    0.0016
     EDDAV:  cpu time    0.2094: real time    0.2096
       DOS:  cpu time    0.0001: real time    0.0001
    CHARGE:  cpu time    0.0180: real time    0.0180
    MIXING:  cpu time    0.0026: real time    0.0026
    --------------------------------------------
      LOOP:  cpu time    0.3262: real time    0.3264

 eigenvalue-minimisations  :   176
 total energy-change (2. order) :-0.1011786E-03  (-0.4163108E-06)
 number of electron       8.0000000 magnetization 
 augmentation part        0.1792610 magnetization 

 Broyden mixing:
  rms(total) = 0.10493E-02    rms(broyden)= 0.10493E-02
  rms(prec ) = 0.15104E-02
  weight for this iteration     100.00

 eigenvalues of (default mixing * dielectric matrix)
  average eigenvalue GAMMA=   2.6943
  7.6081  3.9187  2.6291  2.5281  1.8124  1.0955  0.9814  0.9814

 Free energy of the ion-electron system (eV)
  ---------------------------------------------------
  alpha Z        PSCENC =         2.87798108
  Ewald energy   TEWEN  =      1180.87015617
  -Hartree energ DENC   =     -1426.34956614
  -exchange      EXHF   =         0.00000000
  -V(xc)+E(xc)   XCENC  =        27.10351592
  PAW double counting   =       779.29460431     -780.68195222
  entropy T*S    EENTRO =        -0.00000000
  eigenvalues    EBANDS =       -91.80529561
  atomic energy  EATOM  =       294.30057552
  Solvation  Ediel_sol  =         0.00000000
  ---------------------------------------------------
  free energy    TOTEN  =       -14.38998097 eV

  energy without entropy =      -14.38998097  energy(sigma->0) =      -14.38998097


--------------------------------------------------------------------------------------------------------




--------------------------------------- Iteration      1(  14)  ---------------------------------------


    POTLOK:  cpu time    0.0956: real time    0.0956
    SETDIJ:  cpu time    0.0017: real time    0.0017
     EDDAV:  cpu time    0.2053: real time    0.2053
       DOS:  cpu time    0.0001: real time    0.0001
    CHARGE:  cpu time    0.0212: real time    0.0212
    MIXING:  cpu time    0.0031: real time    0.0031
    --------------------------------------------
      LOOP:  cpu time    0.3269: real time    0.3270

 eigenvalue-minimisations  :   168
 total energy-change (2. order) :-0.6917272E-03  (-0.1192474E-04)
 number of electron       8.0000000 magnetization 
 augmentation part        0.1792747 magnetization 

 Broyden mixing:
  rms(total) = 0.68504E-03    rms(broyden)= 0.68504E-03
  rms(prec ) = 0.73421E-03
  weight for this iteration     100.00

 eigenvalues of (default mixing * dielectric matrix)
  average eigenvalue GAMMA=   2.5151
  7.6340  4.0112  2.4884  2.4884  1.8003  1.3251  0.9782  0.9782  0.9324

 Free energy of the ion-electron system (eV)
  ---------------------------------------------------
  alpha Z        PSCENC =         2.87798108
  Ewald energy   TEWEN  =      1180.87015617
  -Hartree energ DENC   =     -1426.50424228
  -exchange      EXHF   =         0.00000000
  -V(xc)+E(xc)   XCENC  =        27.10165969
  PAW double counting   =       780.47659625     -781.86337883
  entropy T*S    EENTRO =        -0.00000000
  eigenvalues    EBANDS =       -91.65002030
  atomic energy  EATOM  =       294.30057552
  Solvation  Ediel_sol  =         0.00000000
  ---------------------------------------------------
  free energy    TOTEN  =       -14.39067270 eV

  energy without entropy =      -14.39067270  energy(sigma->0) =      -14.39067270


--------------------------------------------------------------------------------------------------------




--------------------------------------- Iteration      1(  15)  ---------------------------------------


    POTLOK:  cpu time    0.1074: real time    0.1074
    SETDIJ:  cpu time    0.0020: real time    0.0020
     EDDAV:  cpu time    0.2537: real time    0.2538
       DOS:  cpu time    0.0001: real time    0.0001
    CHARGE:  cpu time    0.0227: real time    0.0227
    MIXING:  cpu time    0.0033: real time    0.0033
    --------------------------------------------
      LOOP:  cpu time    0.3894: real time    0.3894

 eigenvalue-minimisations  :   192
 total energy-change (2. order) :-0.5449315E-04  (-0.3916191E-06)
 number of electron       8.0000000 magnetization 
 augmentation part        0.1792735 magnetization 

 Broyden mixing:
  rms(total) = 0.16186E-03    rms(broyden)= 0.16186E-03
  rms(prec ) = 0.24383E-03
  weight for this iteration     100.00

 eigenvalues of (default mixing * dielectric matrix)
  average eigenvalue GAMMA=   2.7114
  8.4168  4.9123  3.1084  2.4192  2.4192  1.8164  1.0981  1.0149  1.0149  0.8941

 Free energy of the ion-electron system (eV)
  ---------------------------------------------------
  alpha Z        PSCENC =         2.87798108
  Ewald energy   TEWEN  =      1180.87015617
  -Hartree energ DENC   =     -1426.48786709
  -exchange      EXHF   =         0.00000000
  -V(xc)+E(xc)   XCENC  =        27.10132339
  PAW double counting   =       780.02840696     -781.41543707
  entropy T*S    EENTRO =        -0.00000000
  eigenvalues    EBANDS =       -91.66586615
  atomic energy  EATOM  =       294.30057552
  Solvation  Ediel_sol  =         0.00000000
  ---------------------------------------------------
  free energy    TOTEN  =       -14.39072720 eV

  energy without entropy =      -14.39072720  energy(sigma->0) =      -14.39072720


--------------------------------------------------------------------------------------------------------




--------------------------------------- Iteration      1(  16)  ---------------------------------------


    POTLOK:  cpu time    0.1123: real time    0.1123
    SETDIJ:  cpu time    0.0021: real time    0.0021
     EDDAV:  cpu time    0.2239: real time    0.2239
       DOS:  cpu time    0.0001: real time    0.0001
    CHARGE:  cpu time    0.0232: real time    0.0232
    MIXING:  cpu time    0.0035: real time    0.0035
    --------------------------------------------
      LOOP:  cpu time    0.3652: real time    0.3652

 eigenvalue-minimisations  :   160
 total energy-change (2. order) :-0.3546129E-04  (-0.3416442E-06)
 number of electron       8.0000000 magnetization 
 augmentation part        0.1792698 magnetization 

 Broyden mixing:
  rms(total) = 0.12563E-03    rms(broyden)= 0.12563E-03
  rms(prec ) = 0.15814E-03
  weight for this iteration     100.00

 eigenvalues of (default mixing * dielectric matrix)
  average eigenvalue GAMMA=   2.6474
  8.3228  5.1006  2.8134  2.8134  2.4586  1.7780  1.7780  1.0321  1.0321  0.9960
  0.9960

 Free energy of the ion-electron system (eV)
  ---------------------------------------------------
  alpha Z        PSCENC =         2.87798108
  Ewald energy   TEWEN  =      1180.87015617
  -Hartree energ DENC   =     -1426.52037850
  -exchange      EXHF   =         0.00000000
  -V(xc)+E(xc)   XCENC  =        27.10164535
  PAW double counting   =       779.85851028     -781.24557562
  entropy T*S    EENTRO =        -0.00000000
  eigenvalues    EBANDS =       -91.63367693
  atomic energy  EATOM  =       294.30057552
  Solvation  Ediel_sol  =         0.00000000
  ---------------------------------------------------
  free energy    TOTEN  =       -14.39076266 eV

  energy without entropy =      -14.39076266  energy(sigma->0) =      -14.39076266


--------------------------------------------------------------------------------------------------------




--------------------------------------- Iteration      1(  17)  ---------------------------------------


    POTLOK:  cpu time    0.1131: real time    0.1132
    SETDIJ:  cpu time    0.0021: real time    0.0021
     EDDAV:  cpu time    0.2594: real time    0.2594
       DOS:  cpu time    0.0001: real time    0.0001
    CHARGE:  cpu time    0.0240: real time    0.0240
    MIXING:  cpu time    0.0037: real time    0.0037
    --------------------------------------------
      LOOP:  cpu time    0.4024: real time    0.4025

 eigenvalue-minimisations  :   192
 total energy-change (2. order) :-0.6419696E-05  (-0.1336834E-07)
 number of electron       8.0000000 magnetization 
 augmentation part        0.1792689 magnetization 

 Broyden mixing:
  rms(total) = 0.10365E-03    rms(broyden)= 0.10365E-03
  rms(prec ) = 0.11979E-03
  weight for this iteration     100.00

 eigenvalues of (default mixing * dielectric matrix)
  average eigenvalue GAMMA=   2.6576
  8.4480  5.3727  3.5990  2.8952  2.4566  2.3358  1.8196  1.0807  1.0207  1.0207
  0.9214  0.9214

 Free energy of the ion-electron system (eV)
  ---------------------------------------------------
  alpha Z        PSCENC =         2.87798108
  Ewald energy   TEWEN  =      1180.87015617
  -Hartree energ DENC   =     -1426.53151750
  -exchange      EXHF   =         0.00000000
  -V(xc)+E(xc)   XCENC  =        27.10159958
  PAW double counting   =       779.88378050     -781.27086381
  entropy T*S    EENTRO =        -0.00000000
  eigenvalues    EBANDS =       -91.62248061
  atomic energy  EATOM  =       294.30057552
  Solvation  Ediel_sol  =         0.00000000
  ---------------------------------------------------
  free energy    TOTEN  =       -14.39076908 eV

  energy without entropy =      -14.39076908  energy(sigma->0) =      -14.39076908


--------------------------------------------------------------------------------------------------------




--------------------------------------- Iteration      1(  18)  ---------------------------------------


    POTLOK:  cpu time    0.1125: real time    0.1125
    SETDIJ:  cpu time    0.0021: real time    0.0021
     EDDAV:  cpu time    0.2030: real time    0.2030
       DOS:  cpu time    0.0001: real time    0.0001
    CHARGE:  cpu time    0.0236: real time    0.0236
    MIXING:  cpu time    0.0037: real time    0.0037
    --------------------------------------------
      LOOP:  cpu time    0.3450: real time    0.3450

 eigenvalue-minimisations  :   136
 total energy-change (2. order) :-0.2901914E-05  (-0.2074242E-07)
 number of electron       8.0000000 magnetization 
 augmentation part        0.1792701 magnetization 

 Broyden mixing:
  rms(total) = 0.53069E-04    rms(broyden)= 0.53069E-04
  rms(prec ) = 0.63797E-04
  weight for this iteration     100.00

 eigenvalues of (default mixing * dielectric matrix)
  average eigenvalue GAMMA=   2.7517
  8.4623  5.6844  4.3959  3.0007  2.7386  2.3632  2.2873  1.8218  1.0194  1.0194
  1.0307  0.9745  0.9745

 Free energy of the ion-electron system (eV)
  ---------------------------------------------------
  alpha Z        PSCENC =         2.87798108
  Ewald energy   TEWEN  =      1180.87015617
  -Hartree energ DENC   =     -1426.53897367
  -exchange      EXHF   =         0.00000000
  -V(xc)+E(xc)   XCENC  =        27.10157170
  PAW double counting   =       779.98331783     -781.37034737
  entropy T*S    EENTRO =        -0.00000000
  eigenvalues    EBANDS =       -91.61505323
  atomic energy  EATOM  =       294.30057552
  Solvation  Ediel_sol  =         0.00000000
  ---------------------------------------------------
  free energy    TOTEN  =       -14.39077198 eV

  energy without entropy =      -14.39077198  energy(sigma->0) =      -14.39077198


--------------------------------------------------------------------------------------------------------




--------------------------------------- Iteration      1(  19)  ---------------------------------------


    POTLOK:  cpu time    0.1355: real time    0.1355
    SETDIJ:  cpu time    0.0021: real time    0.0021
     EDDAV:  cpu time    0.1931: real time    0.1932
       DOS:  cpu time    0.0001: real time    0.0001
    CHARGE:  cpu time    0.0200: real time    0.0200
    MIXING:  cpu time    0.0033: real time    0.0033
    --------------------------------------------
      LOOP:  cpu time    0.3541: real time    0.3542

 eigenvalue-minimisations  :   144
 total energy-change (2. order) :-0.2735914E-05  (-0.1826158E-08)
 number of electron       8.0000000 magnetization 
 augmentation part        0.1792695 magnetization 

 Broyden mixing:
  rms(total) = 0.18561E-04    rms(broyden)= 0.18561E-04
  rms(prec ) = 0.20789E-04
  weight for this iteration     100.00

 eigenvalues of (default mixing * dielectric matrix)
  average eigenvalue GAMMA=   2.7151
  8.4745  6.1188  4.6519  3.2431  2.6455  2.5274  2.2640  1.8229  1.2708  0.9935
  0.9935  1.0281  1.0281  0.9490

 Free energy of the ion-electron system (eV)
  ---------------------------------------------------
  alpha Z        PSCENC =         2.87798108
  Ewald energy   TEWEN  =      1180.87015617
  -Hartree energ DENC   =     -1426.54674511
  -exchange      EXHF   =         0.00000000
  -V(xc)+E(xc)   XCENC  =        27.10162008
  PAW double counting   =       779.96426596     -781.35129511
  entropy T*S    EENTRO =        -0.00000000
  eigenvalues    EBANDS =       -91.60733330
  atomic energy  EATOM  =       294.30057552
  Solvation  Ediel_sol  =         0.00000000
  ---------------------------------------------------
  free energy    TOTEN  =       -14.39077471 eV

  energy without entropy =      -14.39077471  energy(sigma->0) =      -14.39077471


--------------------------------------------------------------------------------------------------------




--------------------------------------- Iteration      1(  20)  ---------------------------------------


    POTLOK:  cpu time    0.0972: real time    0.0972
    SETDIJ:  cpu time    0.0016: real time    0.0016
     EDDAV:  cpu time    0.1908: real time    0.1908
       DOS:  cpu time    0.0001: real time    0.0001
    --------------------------------------------
      LOOP:  cpu time    0.2897: real time    0.2897

 eigenvalue-minimisations  :   176
 total energy-change (2. order) :-0.6199026E-06  (-0.2687890E-09)
 number of electron       8.0000000 magnetization 
 augmentation part        0.1792695 magnetization 

 Free energy of the ion-electron system (eV)
  ---------------------------------------------------
  alpha Z        PSCENC =         2.87798108
  Ewald energy   TEWEN  =      1180.87015617
  -Hartree energ DENC   =     -1426.54718104
  -exchange      EXHF   =         0.00000000
  -V(xc)+E(xc)   XCENC  =        27.10160827
  PAW double counting   =       779.95157684     -781.33860819
  entropy T*S    EENTRO =        -0.00000000
  eigenvalues    EBANDS =       -91.60688398
  atomic energy  EATOM  =       294.30057552
  Solvation  Ediel_sol  =         0.00000000
  ---------------------------------------------------
  free energy    TOTEN  =       -14.39077533 eV

  energy without entropy =      -14.39077533  energy(sigma->0) =      -14.39077533


--------------------------------------------------------------------------------------------------------




 average (electrostatic) potential at core
  the test charge radii are     0.6991
  (the norm of the test charge is              1.0000)
       1 -58.5863       2 -58.5863
 
 
 
 E-fermi :  -3.8544     XC(G=0):  -2.1300     alpha+bet : -1.7556

 Fermi energy:        -3.8544402594

 k-point     1 :       0.1250    0.1250    0.0000
  band No.  band energies     occupation 
      1     -21.4989      2.00000
      2      -9.6163      2.00000
      3      -7.8563      2.00000
      4      -5.4278      2.00000
      5      -0.3129      0.00000
      6       1.0058      0.00000
      7       1.6728      0.00000
      8       2.0113      0.00000

 k-point     2 :       0.3750    0.1250    0.0000
  band No.  band energies     occupation 
      1     -18.6943      2.00000
      2     -11.8095      2.00000
      3      -8.6523      2.00000
      4      -6.2135      2.00000
      5      -2.1787      0.00000
      6       1.2403      0.00000
      7       5.4255      0.00000
      8       6.2041      0.00000

 k-point     3 :      -0.3750    0.1250    0.0000
  band No.  band energies     occupation 
      1     -17.2593      2.00000
      2     -12.1967      2.00000
      3     -11.1162      2.00000
      4      -4.3095      2.00000
      5      -3.1041      0.00000
      6      -0.2816      0.00000
      7       8.8685      0.00000
      8       9.0686      0.00000

 k-point     4 :      -0.1250    0.1250    0.0000
  band No.  band energies     occupation 
      1     -20.7155      2.00000
      2     -10.5383      2.00000
      3      -8.6354      2.00000
      4      -6.0517      2.00000
      5       0.9618      0.00000
      6       2.2998      0.00000
      7       2.4468      0.00000
      8       3.3053      0.00000

 k-point     5 :       0.1250    0.3750    0.0000
  band No.  band energies     occupation 
      1     -20.4305      2.00000
      2     -11.6087      2.00000
      3      -8.3851      2.00000
      4      -6.6395      2.00000
      5       2.3404      0.00000
      6       2.3934      0.00000
      7       3.4857      0.00000
      8       3.6533      0.00000

 k-point     6 :       0.3750    0.3750    0.0000
  band No.  band energies     occupation 
      1     -19.1377      2.00000
      2     -13.0940      2.00000
      3      -6.9771      2.00000
      4      -6.5269      2.00000
      5       1.0318      0.00000
      6       1.5696      0.00000
      7       4.5907      0.00000
      8       5.3438      0.00000

 k-point     7 :      -0.3750    0.3750    0.0000
  band No.  band energies     occupation 
      1     -18.0345      2.00000
      2     -13.0374      2.00000
      3      -9.8322      2.00000
      4      -5.6849      2.00000
      5       0.5979      0.00000
      6       0.8818      0.00000
      7       6.8369      0.00000
      8       6.9525      0.00000

 k-point     8 :      -0.1250    0.3750    0.0000
  band No.  band energies     occupation 
      1     -19.0124      2.00000
      2     -14.4237      2.00000
      3      -6.7176      2.00000
      4      -6.2935      2.00000
      5      -0.7871      0.00000
      6       2.7288      0.00000
      7       6.3548      0.00000
      8       7.2535      0.00000


--------------------------------------------------------------------------------------------------------


 soft charge-density along one line, spin component           1
         0         1         2         3         4         5         6         7         8         9
 total charge-density along one line
 
 pseudopotential strength for first ion, spin component:           1
 10.247  13.628   0.000   0.000  -0.001  -0.008  -0.000   0.004
 13.628  18.123   0.000   0.000  -0.001  -0.011  -0.000   0.005
  0.000   0.000  -4.378  -0.000   0.000   8.558   0.000   0.000
  0.000   0.000  -0.000  -4.356  -0.000   0.000   8.525   0.000
 -0.001  -0.001   0.000  -0.000  -4.363   0.000   0.000   8.538
 -0.008  -0.011   8.558   0.000   0.000 -18.865  -0.000  -0.004
 -0.000  -0.000   0.000   8.525   0.000  -0.000 -18.818  -0.000
  0.004   0.005   0.000   0.000   8.538  -0.004  -0.000 -18.843
 total augmentation occupancy for first ion, spin component:           1
  7.476  -3.250   1.269   0.000  -0.017   0.182   0.000   0.001
 -3.250   1.524  -0.682   0.000   0.009  -0.092   0.000  -0.001
  1.269  -0.682   2.035  -0.000  -0.140   0.169   0.000  -0.007
  0.000   0.000  -0.000   1.256   0.000   0.000   0.072   0.000
 -0.017   0.009  -0.140   0.000   1.321  -0.006  -0.000   0.114
  0.182  -0.092   0.169   0.000  -0.006   0.017   0.000  -0.000
  0.000   0.000   0.000   0.072  -0.000   0.000   0.004   0.000
  0.001  -0.001  -0.007   0.000   0.114  -0.000   0.000   0.011


------------------------ aborting loop because EDIFF is reached ----------------------------------------


    CHARGE:  cpu time    0.0174: real time    0.0174
    FORLOC:  cpu time    0.0028: real time    0.0028
    FORNL :  cpu time    0.0076: real time    0.0077
    STRESS:  cpu time    0.0885: real time    0.0885
    FORCOR:  cpu time    0.0917: real time    0.0917
    FORHAR:  cpu time    0.0229: real time    0.0229
    MIXING:  cpu time    0.0033: real time    0.0033
    OFIELD:  cpu time    0.0000: real time    0.0000

 ---------------------------------------------------------------------------------------------

         DFTD3 V3.0 Rev 1        
 IVDW         = 12
 DF pbe       
 parameters
 VDW_S6       =    1.0000
 VDW_S8       =    0.7875
 VDW_A1       =    0.4289
 VDW_A2       =    4.4407
 k1-k3        =   16.0000    1.3333   -4.0000
 VDW_RADIUS   =   50.2022 A
 VDW_CNRADIUS =   21.1671 A
 Edisp (eV)   -0.16587

 E6    (eV) :    -0.1137
 E8    (eV) :    -0.0521
 % E8        : 31.43
    FORVDW:  cpu time    0.0037: real time    0.0037

  FORCE on cell =-STRESS in cart. coord.  units (eV):
  Direction    XX          YY          ZZ          XY          YZ          ZX
  --------------------------------------------------------------------------------------
  Alpha Z     2.87798     2.87798     2.87798
  Ewald    1405.33330  1466.10382 -1690.56702   -12.99255    -0.00000    -0.00000
  Hartree  1408.91966  1412.19210 -1394.56430    -3.67004     0.00000    -0.00000
  E(xc)     -29.25136   -29.33611   -30.41469     0.02016    -0.00000    -0.00000
  Local   -2905.94265 -2952.17812  2981.98083    14.67637    -0.00000    -0.00000
  n-local    -3.99433    -7.52884    -5.99293     1.32253     0.00000     0.00000
  augment    -0.68559    -0.82440    -0.64040     0.00555     0.00000     0.00000
  Kinetic   111.22474   127.64977   137.28461    -8.19953    -0.00000    -0.00000
  Fock        0.00000     0.00000     0.00000     0.00000     0.00000     0.00000
  vdW         0.02962    -0.00584    -0.00042    -0.02890    -0.00000     0.00000
  -------------------------------------------------------------------------------------
  Total     -11.48862    18.95036    -0.03633    -8.86642     0.00000     0.00000
  in kB    -161.21903   265.92912    -0.50982  -124.42178     0.00000     0.00000
  external pressure =       34.73 kB  Pullay stress =        0.00 kB


 VOLUME and BASIS-vectors are now :
 -----------------------------------------------------------------------------
  energy-cutoff  :      600.00
  volume of cell :      114.17
      direct lattice vectors                 reciprocal lattice vectors
     1.743725000 -1.475660840  0.000000000     0.111803962 -0.545548553  0.000000000
     3.114337500  0.638248000  0.000000000     0.258496273  0.305453937  0.000000000
     0.000000000  0.000000000 20.000000000     0.000000000  0.000000000  0.050000000

  length of vectors
     2.284327426  3.179065676 20.000000000     0.556887196  0.400153009  0.050000000


 FORCES acting on ions
    electron-ion (+dipol)            ewald-force                    non-local-force                 convergence-correction
 -----------------------------------------------------------------------------------------------
   0.469E+01 0.841E+02 0.553E-07   -.294E+01 -.894E+02 -.155E-19   0.152E+00 -.282E+01 -.827E-24   0.287E-04 0.573E-05 0.517E-13
   -.469E+01 -.841E+02 -.553E-07   0.294E+01 0.894E+02 0.143E-19   -.152E+00 0.282E+01 0.414E-24   -.287E-04 -.573E-05 0.500E-13
 -----------------------------------------------------------------------------------------------
   -.527E-13 -.244E-13 -.833E-11   0.266E-14 0.000E+00 -.117E-20   0.278E-16 0.000E+00 -.414E-24   0.830E-16 0.878E-15 0.102E-12
 
 
 POSITION                                       TOTAL-FORCE (eV/Angst)
 -----------------------------------------------------------------------------------
      1.61935     -0.27914     10.00000         1.928805     -8.051191     -0.000000
      3.23871     -0.55828     10.00000        -1.928805      8.051191      0.000000
 -----------------------------------------------------------------------------------
    total drift:                               -0.000000     -0.000000     -0.000000


--------------------------------------------------------------------------------------------------------



  FREE ENERGIE OF THE ION-ELECTRON SYSTEM (eV)
  ---------------------------------------------------
  free  energy   TOTEN  =       -14.55664909 eV

  energy  without entropy=      -14.55664909  energy(sigma->0) =      -14.55664909
 


--------------------------------------------------------------------------------------------------------


    POTLOK:  cpu time    0.0923: real time    0.0923


--------------------------------------------------------------------------------------------------------




--------------------------------------------------------------------------------------------------------


    WAVPRE:  cpu time    0.0160: real time    0.0160
    FEWALD:  cpu time    0.0001: real time    0.0001
    ORTHCH:  cpu time    0.0024: real time    0.0024
     LOOP+:  cpu time    6.8427: real time    6.8435


--------------------------------------- Iteration      2(   1)  ---------------------------------------


    POTLOK:  cpu time    0.0922: real time    0.0922
    SETDIJ:  cpu time    0.0007: real time    0.0007
     EDDAV:  cpu time    0.1526: real time    0.1526
       DOS:  cpu time    0.0001: real time    0.0001
    CHARGE:  cpu time    0.0177: real time    0.0177
    MIXING:  cpu time    0.0021: real time    0.0021
    --------------------------------------------
      LOOP:  cpu time    0.2653: real time    0.2653

 eigenvalue-minimisations  :   136
 total energy-change (2. order) : 0.9843789E+00  (-0.7116092E+02)
 number of electron       8.0000000 magnetization 
 augmentation part        0.0884448 magnetization 

 Broyden mixing:
  rms(total) = 0.70523E+00    rms(broyden)= 0.70520E+00
  rms(prec ) = 0.75848E+00
  weight for this iteration     100.00

 Free energy of the ion-electron system (eV)
  ---------------------------------------------------
  alpha Z        PSCENC =         2.87798108
  Ewald energy   TEWEN  =      1161.90685469
  -Hartree energ DENC   =     -1412.44839531
  -exchange      EXHF   =         0.00000000
  -V(xc)+E(xc)   XCENC  =        26.15635057
  PAW double counting   =       779.94735052     -781.33438784
  entropy T*S    EENTRO =        -0.00049638
  eigenvalues    EBANDS =       -84.81222863
  atomic energy  EATOM  =       294.30057552
  Solvation  Ediel_sol  =         0.00000000
  ---------------------------------------------------
  free energy    TOTEN  =       -13.40639579 eV

  energy without entropy =      -13.40589941  energy(sigma->0) =      -13.40614760


--------------------------------------------------------------------------------------------------------




--------------------------------------- Iteration      2(   2)  ---------------------------------------


    POTLOK:  cpu time    0.0911: real time    0.0911
    SETDIJ:  cpu time    0.0007: real time    0.0007
     EDDAV:  cpu time    0.1652: real time    0.1652
       DOS:  cpu time    0.0001: real time    0.0001
    CHARGE:  cpu time    0.0189: real time    0.0189
    MIXING:  cpu time    0.0022: real time    0.0022
    --------------------------------------------
      LOOP:  cpu time    0.2781: real time    0.2781

 eigenvalue-minimisations  :   152
 total energy-change (2. order) :-0.1546987E+00  (-0.1497591E+01)
 number of electron       8.0000000 magnetization 
 augmentation part        0.1158744 magnetization 

 Broyden mixing:
  rms(total) = 0.40336E+00    rms(broyden)= 0.40334E+00
  rms(prec ) = 0.42988E+00
  weight for this iteration     100.00

 eigenvalues of (default mixing * dielectric matrix)
  average eigenvalue GAMMA=   1.1563
  1.1563

 Free energy of the ion-electron system (eV)
  ---------------------------------------------------
  alpha Z        PSCENC =         2.87798108
  Ewald energy   TEWEN  =      1161.90685469
  -Hartree energ DENC   =     -1406.49396660
  -exchange      EXHF   =         0.00000000
  -V(xc)+E(xc)   XCENC  =        25.92123624
  PAW double counting   =       700.93372081     -702.16908102
  entropy T*S    EENTRO =        -0.01877751
  eigenvalues    EBANDS =       -90.81963766
  atomic energy  EATOM  =       294.30057552
  Solvation  Ediel_sol  =         0.00000000
  ---------------------------------------------------
  free energy    TOTEN  =       -13.56109445 eV

  energy without entropy =      -13.54231694  energy(sigma->0) =      -13.55170570


--------------------------------------------------------------------------------------------------------




--------------------------------------- Iteration      2(   3)  ---------------------------------------


    POTLOK:  cpu time    0.0953: real time    0.0954
    SETDIJ:  cpu time    0.0015: real time    0.0015
     EDDAV:  cpu time    0.1962: real time    0.1962
       DOS:  cpu time    0.0001: real time    0.0001
    CHARGE:  cpu time    0.0188: real time    0.0188
    MIXING:  cpu time    0.0023: real time    0.0023
    --------------------------------------------
      LOOP:  cpu time    0.3143: real time    0.3143

 eigenvalue-minimisations  :   184
 total energy-change (2. order) : 0.2982609E+00  (-0.8313110E-01)
 number of electron       8.0000000 magnetization 
 augmentation part        0.1081331 magnetization 

 Broyden mixing:
  rms(total) = 0.17371E+00    rms(broyden)= 0.17371E+00
  rms(prec ) = 0.17940E+00
  weight for this iteration     100.00

 eigenvalues of (default mixing * dielectric matrix)
  average eigenvalue GAMMA=   1.3098
  1.0687  1.5509

 Free energy of the ion-electron system (eV)
  ---------------------------------------------------
  alpha Z        PSCENC =         2.87798108
  Ewald energy   TEWEN  =      1161.90685469
  -Hartree energ DENC   =     -1408.13523978
  -exchange      EXHF   =         0.00000000
  -V(xc)+E(xc)   XCENC  =        26.01972725
  PAW double counting   =       600.73723831     -601.98345783
  entropy T*S    EENTRO =        -0.01414448
  eigenvalues    EBANDS =       -88.97236829
  atomic energy  EATOM  =       294.30057552
  Solvation  Ediel_sol  =         0.00000000
  ---------------------------------------------------
  free energy    TOTEN  =       -13.26283355 eV

  energy without entropy =      -13.24868906  energy(sigma->0) =      -13.25576130


--------------------------------------------------------------------------------------------------------




--------------------------------------- Iteration      2(   4)  ---------------------------------------


    POTLOK:  cpu time    0.0862: real time    0.0862
    SETDIJ:  cpu time    0.0008: real time    0.0008
     EDDAV:  cpu time    0.2129: real time    0.2134
       DOS:  cpu time    0.0001: real time    0.0001
    CHARGE:  cpu time    0.0195: real time    0.0196
    MIXING:  cpu time    0.0023: real time    0.0023
    --------------------------------------------
      LOOP:  cpu time    0.3219: real time    0.3224

 eigenvalue-minimisations  :   176
 total energy-change (2. order) : 0.2428979E-02  (-0.8579286E-02)
 number of electron       8.0000000 magnetization 
 augmentation part        0.1073634 magnetization 

 Broyden mixing:
  rms(total) = 0.76726E-01    rms(broyden)= 0.76720E-01
  rms(prec ) = 0.78873E-01
  weight for this iteration     100.00

 eigenvalues of (default mixing * dielectric matrix)
  average eigenvalue GAMMA=   1.5756
  2.5026  1.1120  1.1120

 Free energy of the ion-electron system (eV)
  ---------------------------------------------------
  alpha Z        PSCENC =         2.87798108
  Ewald energy   TEWEN  =      1161.90685469
  -Hartree energ DENC   =     -1408.99466548
  -exchange      EXHF   =         0.00000000
  -V(xc)+E(xc)   XCENC  =        26.07540458
  PAW double counting   =       536.22173642     -537.46384081
  entropy T*S    EENTRO =        -0.01374639
  eigenvalues    EBANDS =       -88.17070418
  atomic energy  EATOM  =       294.30057552
  Solvation  Ediel_sol  =         0.00000000
  ---------------------------------------------------
  free energy    TOTEN  =       -13.26040457 eV

  energy without entropy =      -13.24665818  energy(sigma->0) =      -13.25353137


--------------------------------------------------------------------------------------------------------




--------------------------------------- Iteration      2(   5)  ---------------------------------------


    POTLOK:  cpu time    0.0905: real time    0.0905
    SETDIJ:  cpu time    0.0008: real time    0.0008
     EDDAV:  cpu time    0.2630: real time    0.2630
       DOS:  cpu time    0.0001: real time    0.0001
    CHARGE:  cpu time    0.0234: real time    0.0234
    MIXING:  cpu time    0.0028: real time    0.0110
    --------------------------------------------
      LOOP:  cpu time    0.3806: real time    0.3888

 eigenvalue-minimisations  :   232
 total energy-change (2. order) :-0.4037240E-02  (-0.8688638E-03)
 number of electron       8.0000000 magnetization 
 augmentation part        0.1070346 magnetization 

 Broyden mixing:
  rms(total) = 0.17159E-01    rms(broyden)= 0.17159E-01
  rms(prec ) = 0.18434E-01
  weight for this iteration     100.00

 eigenvalues of (default mixing * dielectric matrix)
  average eigenvalue GAMMA=   1.4631
  2.5698  1.1993  1.1993  0.8839

 Free energy of the ion-electron system (eV)
  ---------------------------------------------------
  alpha Z        PSCENC =         2.87798108
  Ewald energy   TEWEN  =      1161.90685469
  -Hartree energ DENC   =     -1408.68033690
  -exchange      EXHF   =         0.00000000
  -V(xc)+E(xc)   XCENC  =        26.08683579
  PAW double counting   =       492.84392749     -494.07264812
  entropy T*S    EENTRO =        -0.01415480
  eigenvalues    EBANDS =       -88.51347656
  atomic energy  EATOM  =       294.30057552
  Solvation  Ediel_sol  =         0.00000000
  ---------------------------------------------------
  free energy    TOTEN  =       -13.26444181 eV

  energy without entropy =      -13.25028701  energy(sigma->0) =      -13.25736441


--------------------------------------------------------------------------------------------------------




--------------------------------------- Iteration      2(   6)  ---------------------------------------


    POTLOK:  cpu time    0.1021: real time    0.1021
    SETDIJ:  cpu time    0.0009: real time    0.0009
     EDDAV:  cpu time    0.2649: real time    0.2650
       DOS:  cpu time    0.0001: real time    0.0001
    CHARGE:  cpu time    0.0241: real time    0.0241
    MIXING:  cpu time    0.0030: real time    0.0030
    --------------------------------------------
      LOOP:  cpu time    0.3952: real time    0.3954

 eigenvalue-minimisations  :   216
 total energy-change (2. order) : 0.5584637E-03  (-0.1480943E-03)
 number of electron       8.0000000 magnetization 
 augmentation part        0.1071229 magnetization 

 Broyden mixing:
  rms(total) = 0.88715E-02    rms(broyden)= 0.88697E-02
  rms(prec ) = 0.94999E-02
  weight for this iteration     100.00

 eigenvalues of (default mixing * dielectric matrix)
  average eigenvalue GAMMA=   1.5594
  2.7049  1.6882  1.0489  1.1775  1.1775

 Free energy of the ion-electron system (eV)
  ---------------------------------------------------
  alpha Z        PSCENC =         2.87798108
  Ewald energy   TEWEN  =      1161.90685469
  -Hartree energ DENC   =     -1408.39367932
  -exchange      EXHF   =         0.00000000
  -V(xc)+E(xc)   XCENC  =        26.07791123
  PAW double counting   =       492.64504569     -493.87040397
  entropy T*S    EENTRO =        -0.01438203
  eigenvalues    EBANDS =       -88.79378623
  atomic energy  EATOM  =       294.30057552
  Solvation  Ediel_sol  =         0.00000000
  ---------------------------------------------------
  free energy    TOTEN  =       -13.26388334 eV

  energy without entropy =      -13.24950131  energy(sigma->0) =      -13.25669233


--------------------------------------------------------------------------------------------------------




--------------------------------------- Iteration      2(   7)  ---------------------------------------


    POTLOK:  cpu time    0.1079: real time    0.1079
    SETDIJ:  cpu time    0.0010: real time    0.0010
[...]
  7.062  -3.032  -0.934   0.000  -0.280  -0.139   0.000  -0.045
 -3.032   1.420   0.518   0.000   0.164   0.070   0.000   0.023
 -0.934   0.518   1.798  -0.000  -0.269   0.145   0.000  -0.025
  0.000   0.000  -0.000   1.197   0.000   0.000   0.066   0.000
 -0.280   0.164  -0.269   0.000   1.474  -0.025  -0.000   0.132
 -0.139   0.070   0.145   0.000  -0.025   0.014   0.000  -0.002
  0.000   0.000   0.000   0.066  -0.000   0.000   0.004   0.000
 -0.045   0.023  -0.025   0.000   0.132  -0.002   0.000   0.013


------------------------ aborting loop because EDIFF is reached ----------------------------------------


    CHARGE:  cpu time    0.0221: real time    0.0221
    FORLOC:  cpu time    0.0038: real time    0.0038
    FORNL :  cpu time    0.0103: real time    0.0103
    STRESS:  cpu time    0.1246: real time    0.1246
    FORCOR:  cpu time    0.1135: real time    0.1135
    FORHAR:  cpu time    0.0275: real time    0.0275
    MIXING:  cpu time    0.0032: real time    0.0032
    OFIELD:  cpu time    0.0000: real time    0.0000

 ---------------------------------------------------------------------------------------------

         DFTD3 V3.0 Rev 1        
 Edisp (eV)   -0.16975

 E6    (eV) :    -0.1164
 E8    (eV) :    -0.0533
 % E8        : 31.43
    FORVDW:  cpu time    0.0034: real time    0.0034

  FORCE on cell =-STRESS in cart. coord.  units (eV):
  Direction    XX          YY          ZZ          XY          YZ          ZX
  --------------------------------------------------------------------------------------
  Alpha Z     2.87798     2.87798     2.87798
  Ewald    1428.93586  1439.34002 -1690.56702   -34.57730    -0.00000    -0.00000
  Hartree  1409.76036  1407.63102 -1394.13552    -8.45968     0.00000    -0.00000
  E(xc)     -28.98892   -29.16512   -30.20419    -0.05864     0.00000    -0.00000
  Local   -2926.12501 -2928.20575  2982.33324    39.93373    -0.00000    -0.00000
  n-local    -3.96058    -6.85742    -5.40365     1.30152    -0.00000    -0.00000
  augment    -0.66505    -0.70336    -0.61302     0.00503    -0.00000     0.00000
  Kinetic   108.73326   127.04856   135.67607    -4.73593     0.00000    -0.00000
  Fock        0.00000     0.00000     0.00000     0.00000     0.00000     0.00000
  vdW        -0.03610    -0.06403    -0.00044     0.00751    -0.00000     0.00000
  -------------------------------------------------------------------------------------
  Total      -9.46820    11.90190    -0.03655    -6.58376     0.00000     0.00000
  in kB    -132.86660   167.01854    -0.51292   -92.38949     0.00000     0.00000
  external pressure =       11.21 kB  Pullay stress =        0.00 kB


 VOLUME and BASIS-vectors are now :
 -----------------------------------------------------------------------------
  energy-cutoff  :      600.00
  volume of cell :      114.17
      direct lattice vectors                 reciprocal lattice vectors
     1.743725000 -1.475660840  0.000000000     0.111803962 -0.545548553  0.000000000
     3.114337500  0.638248000  0.000000000     0.258496273  0.305453937  0.000000000
     0.000000000  0.000000000 20.000000000     0.000000000  0.000000000  0.050000000

  length of vectors
     2.284327426  3.179065676 20.000000000     0.556887196  0.400153009  0.050000000


 FORCES acting on ions
    electron-ion (+dipol)            ewald-force                    non-local-force                 convergence-correction
 -----------------------------------------------------------------------------------------------
   -.212E+02 -.679E+02 -.324E-07   0.211E+02 0.673E+02 0.165E-19   0.238E+00 0.745E+00 0.404E-27   -.990E-03 -.872E-03 0.248E-11
   0.212E+02 0.679E+02 0.324E-07   -.211E+02 -.673E+02 -.168E-19   -.238E+00 -.745E+00 0.323E-26   0.990E-03 0.872E-03 0.248E-11
 -----------------------------------------------------------------------------------------------
   0.126E-12 0.426E-13 -.574E-11   0.000E+00 0.000E+00 -.316E-21   0.278E-16 0.111E-15 0.364E-26   0.401E-14 -.275E-14 0.497E-11
 
 
 POSITION                                       TOTAL-FORCE (eV/Angst)
 -----------------------------------------------------------------------------------
      1.59745     -0.84580     10.00000         0.002148      0.009312     -0.000000
      3.26061      0.00839     10.00000        -0.002148     -0.009312      0.000000
 -----------------------------------------------------------------------------------
    total drift:                                0.000000      0.000000     -0.000000


--------------------------------------------------------------------------------------------------------



  FREE ENERGIE OF THE ION-ELECTRON SYSTEM (eV)
  ---------------------------------------------------
  free  energy   TOTEN  =       -14.99975367 eV

  energy  without entropy=      -14.99974766  energy(sigma->0) =      -14.99975067
 
 d Force = 0.2892012E-05[ 0.201E-05, 0.377E-05]  d Energy = 0.2842629E-05 0.494E-07
 d Force = 0.1564030E-01[ 0.156E-01, 0.156E-01]  d Ewald  = 0.1564030E-01-0.557E-09


--------------------------------------------------------------------------------------------------------


    POTLOK:  cpu time    0.1090: real time    0.1090


--------------------------------------------------------------------------------------------------------


 Conjugate gradient step on ions:
 trial-energy change:   -0.000003  1 .order   -0.000003   -0.000004   -0.000002
  (g-gl).g =-0.120E-03      g.g   = 0.334E-04  gl.gl    = 0.123E-02
 g(Force)  = 0.334E-04   g(Stress)= 0.000E+00 ortho     =-0.167E-04
 gamma     =  -0.09750
 trial     =   0.10774
 opt step  =   0.23130  (harmonic =   0.23130) maximal distance =0.00021115
 next E    =   -14.999755   (d E  =  -0.00000)


--------------------------------------------------------------------------------------------------------


    WAVPRE:  cpu time    0.0205: real time    0.0205
    FEWALD:  cpu time    0.0001: real time    0.0001
    ORTHCH:  cpu time    0.0032: real time    0.0032
     LOOP+:  cpu time    1.0639: real time    1.0639


--------------------------------------- Iteration     22(   1)  ---------------------------------------


    POTLOK:  cpu time    0.1094: real time    0.1094
    SETDIJ:  cpu time    0.0018: real time    0.0018
     EDDAV:  cpu time    0.1973: real time    0.1973
       DOS:  cpu time    0.0001: real time    0.0001
    CHARGE:  cpu time    0.0230: real time    0.0230
    MIXING:  cpu time    0.0028: real time    0.0028
    --------------------------------------------
      LOOP:  cpu time    0.3345: real time    0.3345

 eigenvalue-minimisations  :   136
 total energy-change (2. order) :-0.1984161E-04  (-0.1099448E-04)
 number of electron       8.0000000 magnetization 
 augmentation part        0.1703207 magnetization 

 Broyden mixing:
  rms(total) = 0.24262E-03    rms(broyden)= 0.24257E-03
  rms(prec ) = 0.25106E-03
  weight for this iteration     100.00

 Free energy of the ion-electron system (eV)
  ---------------------------------------------------
  alpha Z        PSCENC =         2.87798108
  Ewald energy   TEWEN  =      1177.69099304
  -Hartree energ DENC   =     -1423.25163638
  -exchange      EXHF   =         0.00000000
  -V(xc)+E(xc)   XCENC  =        26.92374027
  PAW double counting   =       722.18230272     -723.53347560
  entropy T*S    EENTRO =        -0.00000642
  eigenvalues    EBANDS =       -92.02049772
  atomic energy  EATOM  =       294.30057552
  Solvation  Ediel_sol  =         0.00000000
  ---------------------------------------------------
  free energy    TOTEN  =       -14.83002350 eV

  energy without entropy =      -14.83001709  energy(sigma->0) =      -14.83002029


--------------------------------------------------------------------------------------------------------




--------------------------------------- Iteration     22(   2)  ---------------------------------------


    POTLOK:  cpu time    0.1105: real time    0.1105
    SETDIJ:  cpu time    0.0019: real time    0.0019
     EDDAV:  cpu time    0.2224: real time    0.2224
       DOS:  cpu time    0.0001: real time    0.0001
    --------------------------------------------
      LOOP:  cpu time    0.3349: real time    0.3349

 eigenvalue-minimisations  :   160
 total energy-change (2. order) : 0.8551478E-07  (-0.7856478E-07)
 number of electron       8.0000000 magnetization 
 augmentation part        0.1703207 magnetization 

 Free energy of the ion-electron system (eV)
  ---------------------------------------------------
  alpha Z        PSCENC =         2.87798108
  Ewald energy   TEWEN  =      1177.69099304
  -Hartree energ DENC   =     -1423.24913733
  -exchange      EXHF   =         0.00000000
  -V(xc)+E(xc)   XCENC  =        26.92363019
  PAW double counting   =       722.07403806     -723.42516603
  entropy T*S    EENTRO =        -0.00000640
  eigenvalues    EBANDS =       -92.02293155
  atomic energy  EATOM  =       294.30057552
  Solvation  Ediel_sol  =         0.00000000
  ---------------------------------------------------
  free energy    TOTEN  =       -14.83002342 eV

  energy without entropy =      -14.83001702  energy(sigma->0) =      -14.83002022


--------------------------------------------------------------------------------------------------------




 average (electrostatic) potential at core
  the test charge radii are     0.6991
  (the norm of the test charge is              1.0000)
       1 -58.7655       2 -58.7655
 
 
 
 E-fermi :  -3.9567     XC(G=0):  -2.1165     alpha+bet : -1.7556

 Fermi energy:        -3.9566868193

 k-point     1 :       0.1250    0.1250    0.0000
  band No.  band energies     occupation 
      1     -21.6024      2.00000
      2      -9.6488      2.00000
      3      -8.0945      2.00000
      4      -5.3344      2.00000
      5      -1.4184      0.00000
      6       1.0098      0.00000
      7       1.7083      0.00000
      8       2.0759      0.00000

 k-point     2 :       0.3750    0.1250    0.0000
  band No.  band energies     occupation 
      1     -18.6023      2.00000
      2     -12.9607      2.00000
      3      -7.3275      2.00000
      4      -5.9879      2.00000
      5      -3.1842      0.00000
      6       0.5596      0.00000
      7       5.4169      0.00000
      8       6.1654      0.00000

 k-point     3 :      -0.3750    0.1250    0.0000
  band No.  band energies     occupation 
      1     -17.0501      2.00000
      2     -12.8592      2.00000
      3     -10.9295      2.00000
      4      -4.2341      1.99991
      5      -3.6792      0.00009
      6      -0.4246      0.00000
      7       8.2861      0.00000
      8       9.1188      0.00000

 k-point     4 :      -0.1250    0.1250    0.0000
  band No.  band energies     occupation 
      1     -20.7880      2.00000
      2     -10.0550      2.00000
      3      -8.7400      2.00000
      4      -7.2421      2.00000
      5       0.9666      0.00000
      6       2.3481      0.00000
      7       2.5107      0.00000
      8       3.3712      0.00000

 k-point     5 :       0.1250    0.3750    0.0000
  band No.  band energies     occupation 
      1     -20.5255      2.00000
      2     -10.9760      2.00000
      3      -8.4631      2.00000
      4      -7.9304      2.00000
      5       2.1660      0.00000
      6       2.3763      0.00000
      7       3.5438      0.00000
      8       3.7089      0.00000

 k-point     6 :       0.3750    0.3750    0.0000
  band No.  band energies     occupation 
      1     -19.0945      2.00000
      2     -14.0296      2.00000
      3      -6.5784      2.00000
      4      -5.2958      2.00000
      5      -0.1234      0.00000
      6       0.4645      0.00000
      7       4.6096      0.00000
      8       5.3284      0.00000

 k-point     7 :      -0.3750    0.3750    0.0000
  band No.  band energies     occupation 
      1     -17.9141      2.00000
      2     -13.8881      2.00000
      3      -9.2554      2.00000
      4      -5.2430      2.00000
      5      -0.5377      0.00000
      6       0.0682      0.00000
      7       6.7823      0.00000
      8       7.1179      0.00000

 k-point     8 :      -0.1250    0.3750    0.0000
  band No.  band energies     occupation 
      1     -19.0811      2.00000
      2     -14.0779      2.00000
      3      -7.2941      2.00000
      4      -6.9882      2.00000
      5      -0.4643      0.00000
      6       3.1813      0.00000
      7       6.4052      0.00000
      8       7.2579      0.00000


--------------------------------------------------------------------------------------------------------


 soft charge-density along one line, spin component           1
         0         1         2         3         4         5         6         7         8         9
 total charge-density along one line
 
 pseudopotential strength for first ion, spin component:           1
 10.253  13.636   0.002  -0.000   0.000  -0.003   0.000   0.000
 13.636  18.133   0.003  -0.000   0.000  -0.003   0.000   0.000
  0.002   0.003  -4.383   0.000   0.000   8.574  -0.000   0.002
 -0.000  -0.000   0.000  -4.371  -0.000  -0.000   8.556   0.000
  0.000   0.000   0.000  -0.000  -4.379   0.002   0.000   8.571
 -0.003  -0.003   8.574  -0.000   0.002 -18.911   0.000  -0.008
  0.000   0.000  -0.000   8.556   0.000   0.000 -18.888  -0.000
  0.000   0.000   0.002   0.000   8.571  -0.008  -0.000 -18.912
 total augmentation occupancy for first ion, spin component:           1
  7.060  -3.031  -0.933   0.000  -0.280  -0.139   0.000  -0.045
 -3.031   1.420   0.517   0.000   0.164   0.070   0.000   0.023
 -0.933   0.517   1.798   0.000  -0.269   0.145   0.000  -0.025
  0.000   0.000   0.000   1.196   0.000   0.000   0.066   0.000
 -0.280   0.164  -0.269   0.000   1.474  -0.025   0.000   0.132
 -0.139   0.070   0.145   0.000  -0.025   0.014  -0.000  -0.002
  0.000   0.000   0.000   0.066   0.000  -0.000   0.004   0.000
 -0.045   0.023  -0.025   0.000   0.132  -0.002   0.000   0.013


------------------------ aborting loop because EDIFF is reached ----------------------------------------


    CHARGE:  cpu time    0.0238: real time    0.0238
    FORLOC:  cpu time    0.0041: real time    0.0041
    FORNL :  cpu time    0.0112: real time    0.0112
    STRESS:  cpu time    0.1288: real time    0.1288
    FORCOR:  cpu time    0.1213: real time    0.1213
    FORHAR:  cpu time    0.0365: real time    0.0365
    MIXING:  cpu time    0.0059: real time    0.0060
    OFIELD:  cpu time    0.0000: real time    0.0000

 ---------------------------------------------------------------------------------------------

         DFTD3 V3.0 Rev 1        
 Edisp (eV)   -0.16973

 E6    (eV) :    -0.1164
 E8    (eV) :    -0.0533
 % E8        : 31.43
    FORVDW:  cpu time    0.0034: real time    0.0034

  FORCE on cell =-STRESS in cart. coord.  units (eV):
  Direction    XX          YY          ZZ          XY          YZ          ZX
  --------------------------------------------------------------------------------------
  Alpha Z     2.87798     2.87798     2.87798
  Ewald    1428.92239  1439.33556 -1690.56702   -34.51958     0.00000     0.00000
  Hartree  1409.75197  1407.62616 -1394.13701    -8.44822     0.00000    -0.00000
  E(xc)     -28.98805   -29.16422   -30.20336    -0.05846    -0.00000    -0.00000
  Local   -2926.10616 -2928.20224  2982.33847    39.87199     0.00000     0.00000
  n-local    -3.95954    -6.85756    -5.40297     1.30209    -0.00000    -0.00000
  augment    -0.66489    -0.70315    -0.61293     0.00498     0.00000     0.00000
  Kinetic   108.72725   127.04328   135.67051    -4.74532    -0.00000    -0.00000
  Fock        0.00000     0.00000     0.00000     0.00000     0.00000     0.00000
  vdW        -0.03565    -0.06359    -0.00044     0.00747    -0.00000    -0.00000
  -------------------------------------------------------------------------------------
  Total      -9.47469    11.89223    -0.03676    -6.58505     0.00000     0.00000
  in kB    -132.95770   166.88280    -0.51584   -92.40759     0.00000     0.00000
  external pressure =       11.14 kB  Pullay stress =        0.00 kB


 VOLUME and BASIS-vectors are now :
 -----------------------------------------------------------------------------
  energy-cutoff  :      600.00
  volume of cell :      114.17
      direct lattice vectors                 reciprocal lattice vectors
     1.743725000 -1.475660840  0.000000000     0.111803962 -0.545548553  0.000000000
     3.114337500  0.638248000  0.000000000     0.258496273  0.305453937  0.000000000
     0.000000000  0.000000000 20.000000000     0.000000000  0.000000000  0.050000000

  length of vectors
     2.284327426  3.179065676 20.000000000     0.556887196  0.400153009  0.050000000


 FORCES acting on ions
    electron-ion (+dipol)            ewald-force                    non-local-force                 convergence-correction
 -----------------------------------------------------------------------------------------------
   -.212E+02 -.679E+02 -.321E-07   0.210E+02 0.672E+02 -.510E-20   0.239E+00 0.744E+00 0.000E+00   -.115E-02 -.850E-03 -.172E-11
   0.212E+02 0.679E+02 0.321E-07   -.210E+02 -.672E+02 0.506E-20   -.239E+00 -.744E+00 0.000E+00   0.115E-02 0.850E-03 -.167E-11
 -----------------------------------------------------------------------------------------------
   -.460E-13 -.693E-13 0.524E-11   0.000E+00 0.000E+00 -.384E-22   0.000E+00 -.111E-15 0.000E+00   0.203E-13 0.225E-13 -.339E-11
 
 
 POSITION                                       TOTAL-FORCE (eV/Angst)
 -----------------------------------------------------------------------------------
      1.59757     -0.84570     10.00000         0.001288     -0.001551      0.000000
      3.26050      0.00829     10.00000        -0.001288      0.001551     -0.000000
 -----------------------------------------------------------------------------------
    total drift:                               -0.000000     -0.000000      0.000000


--------------------------------------------------------------------------------------------------------



  FREE ENERGIE OF THE ION-ELECTRON SYSTEM (eV)
  ---------------------------------------------------
  free  energy   TOTEN  =       -14.99975459 eV

  energy  without entropy=      -14.99974819  energy(sigma->0) =      -14.99975139
 
 d Force = 0.1148239E-05[-0.133E-07, 0.231E-05]  d Energy = 0.9159316E-06 0.232E-06
 d Force = 0.1792948E-01[ 0.179E-01, 0.179E-01]  d Ewald  = 0.1792948E-01-0.840E-09


--------------------------------------------------------------------------------------------------------


    POTLOK:  cpu time    0.1104: real time    0.1104


--------------------------------------------------------------------------------------------------------




--------------------------------------------------------------------------------------------------------


  
 reached required accuracy - stopping structural energy minimisation
     LOOP+:  cpu time    1.1169: real time    1.1170
    4ORBIT:  cpu time    0.0000: real time    0.0000

 total amount of memory used by VASP MPI-rank0    64061. kBytes
=======================================================================

   base      :      30000. kBytes
   nonl-proj :       2095. kBytes
   fftplans  :      11199. kBytes
   grid      :      18781. kBytes
   one-center:          6. kBytes
   wavefun   :       1980. kBytes
 
  
  
 General timing and accounting informations for this job:
 ========================================================
  
                  Total CPU time used (sec):       70.643
                            User time (sec):       68.325
                          System time (sec):        2.318
                         Elapsed time (sec):       71.010
  
                   Maximum memory used (kb):      178188.
                   Average memory used (kb):          N/A
  
                          Minor page faults:       931300
                          Major page faults:            0
                 Voluntary context switches:          582
