unknown system                          
           1
     1.743725   -1.475661    0.000000
     3.114337    0.638248    0.000000
     0.000000    0.000000   20.000000
   C 
     2
Direct configuration=     1
   0.33333333  0.33333333  0.50000000
   0.66666667  0.66666667  0.50000000
Direct configuration=     2
   0.55563373  0.23874498  0.50000000
   0.44436627  0.76125502  0.50000000
Direct configuration=     3
   0.75087755  0.15566913  0.50000000
   0.24912245  0.84433087  0.50000000
Direct configuration=     4
   0.56669068  0.23404027  0.50000000
   0.43330932  0.76595973  0.50000000
Direct configuration=     5
   0.65878411  0.19485470  0.50000000
   0.34121589  0.80514530  0.50000000
Direct configuration=     6
   0.62366309  0.20979862  0.50000000
   0.37633691  0.79020138  0.50000000
Direct configuration=     7
   0.63973806  0.20295875  0.50000000
   0.36026194  0.79704125  0.50000000
Direct configuration=     8
   0.63692971  0.20415371  0.50000000
   0.36307029  0.79584629  0.50000000
Direct configuration=     9
   0.63720080  0.20403836  0.50000000
   0.36279920  0.79596164  0.50000000
Direct configuration=    10
   0.64084945  0.18788004  0.50000000
   0.35915055  0.81211996  0.50000000
Direct configuration=    11
   0.65179539  0.13940507  0.50000000
   0.34820461  0.86059493  0.50000000
Direct configuration=    12
   0.64622420  0.16407751  0.50000000
   0.35377580  0.83592249  0.50000000
Direct configuration=    13
   0.64994200  0.14761293  0.50000000
   0.35005800  0.85238707  0.50000000
Direct configuration=    14
   0.64798778  0.15626737  0.50000000
   0.35201222  0.84373263  0.50000000
Direct configuration=    15
   0.64668335  0.15390464  0.50000000
   0.35331665  0.84609536  0.50000000
Direct configuration=    16
   0.64400694  0.14905683  0.50000000
   0.35599306  0.85094317  0.50000000
Direct configuration=    17
   0.64310386  0.15052920  0.50000000
   0.35689614  0.84947080  0.50000000
Direct configuration=    18
   0.64039462  0.15494632  0.50000000
   0.35960538  0.84505368  0.50000000
Direct configuration=    19
   0.64029280  0.15481846  0.50000000
   0.35970720  0.84518154  0.50000000
Direct configuration=    20
   0.64006347  0.15453047  0.50000000
   0.35993653  0.84546953  0.50000000
Direct configuration=    21
   0.64002785  0.15458200  0.50000000
   0.35997215  0.84541800  0.50000000
Direct configuration=    22
   0.63998699  0.15464109  0.50000000
   0.36001301  0.84535891  0.50000000
