   8   8   0   0
  0.7004359E+02  0.6524186E-09  0.5356163E-09  0.2021747E-08  0.1000000E-14
   300.000000000000     
  CAR 
 unknown system                          
      2.65842762    -22.36242071  301     -4.51961416      1.00000000
    -22.362  0.0000E+00  0.0000E+00
    -22.279  0.0000E+00  0.0000E+00
    -22.196  0.0000E+00  0.0000E+00
    -22.112  0.0000E+00  0.0000E+00
    -22.029  0.7057E-27  0.5938E-28
    -21.945  0.5536E-24  0.4665E-25
    -21.862  0.3024E-21  0.2550E-22
    -21.779  0.1147E-18  0.9679E-20
    -21.695  0.3014E-16  0.2547E-17
    -21.612  0.5478E-14  0.4637E-15
    -21.528  0.6876E-12  0.5836E-13
    -21.445  0.5923E-10  0.5046E-11
    -21.362  0.3490E-08  0.2989E-09
    -21.278  0.1397E-06  0.1206E-07
    -21.195  0.3768E-05  0.3293E-06
    -21.111  0.6746E-04  0.6007E-05
    -21.028  0.7828E-03  0.7188E-04
    -20.945  0.5623E-02  0.5449E-03
    -20.861  0.2232E-01  0.2422E-02
    -20.778  0.2871E-01  0.4831E-02
    -20.694 -0.1098E+00 -0.4413E-02
    -20.611 -0.4049E+00 -0.3845E-01
    -20.528  0.5604E-01 -0.3362E-01
    -20.444  0.2382E+01  0.1667E+00
    -20.361  0.4844E+01  0.5738E+00
    -20.277  0.4244E+01  0.9301E+00
    -20.194  0.1450E+01  0.1052E+01
    -20.111 -0.2669E+00  0.1029E+01
    -20.027 -0.5173E+00  0.9856E+00
    -19.944 -0.4022E+00  0.9519E+00
    -19.860  0.6755E+00  0.1009E+01
    -19.777  0.3239E+01  0.1282E+01
    -19.694  0.4826E+01  0.1687E+01
    -19.610  0.3201E+01  0.1955E+01
    -19.527  0.7116E+00  0.2015E+01
    -19.443  0.8012E+00  0.2083E+01
    -19.360  0.2947E+01  0.2331E+01
    -19.277  0.4106E+01  0.2676E+01
    -19.193  0.2960E+01  0.2924E+01
    -19.110  0.9023E+00  0.2999E+01
    -19.026  0.5505E-01  0.3003E+01
    -18.943  0.1173E+01  0.3103E+01
    -18.860  0.2897E+01  0.3348E+01
    -18.776  0.3406E+01  0.3634E+01
    -18.693  0.2515E+01  0.3844E+01
    -18.609  0.1428E+01  0.3963E+01
    -18.526  0.1532E+01  0.4092E+01
    -18.442  0.2940E+01  0.4340E+01
    -18.359  0.3859E+01  0.4664E+01
    -18.276  0.2919E+01  0.4909E+01
    -18.192  0.1347E+01  0.5021E+01
    -18.109  0.1167E+01  0.5120E+01
    -18.025  0.2294E+01  0.5314E+01
    -17.942  0.3040E+01  0.5569E+01
    -17.859  0.2593E+01  0.5786E+01
    -17.775  0.1835E+01  0.5940E+01
    -17.692  0.1839E+01  0.6095E+01
    -17.608  0.2340E+01  0.6292E+01
    -17.525  0.2557E+01  0.6508E+01
    -17.442  0.2454E+01  0.6713E+01
    -17.358  0.2011E+01  0.6881E+01
    -17.275  0.1088E+01  0.6971E+01
    -17.191  0.4923E+00  0.7013E+01
    -17.108  0.1032E+01  0.7100E+01
    -17.025  0.1905E+01  0.7262E+01
    -16.941  0.1958E+01  0.7427E+01
    -16.858  0.1523E+01  0.7555E+01
    -16.774  0.1466E+01  0.7678E+01
    -16.691  0.1696E+01  0.7819E+01
    -16.608  0.1490E+01  0.7943E+01
    -16.524  0.7328E+00  0.8004E+01
    -16.441  0.7743E-01  0.8011E+01
    -16.357 -0.1018E+00  0.8002E+01
    -16.274 -0.4107E-01  0.7999E+01
    -16.191  0.4871E-02  0.7999E+01
    -16.107  0.7666E-02  0.8000E+01
    -16.024  0.2531E-02  0.8000E+01
    -15.940  0.4509E-03  0.8000E+01
    -15.857  0.4993E-04  0.8000E+01
    -15.774  0.3620E-05  0.8000E+01
    -15.690  0.1763E-06  0.8000E+01
    -15.607  0.5848E-08  0.8000E+01
    -15.523  0.1334E-09  0.8000E+01
    -15.440  0.2150E-11  0.8000E+01
    -15.357  0.3898E-11  0.8000E+01
    -15.273  0.2211E-09  0.8000E+01
    -15.190  0.8685E-08  0.8000E+01
    -15.106  0.2333E-06  0.8000E+01
    -15.023  0.4244E-05  0.8000E+01
    -14.940  0.5146E-04  0.8000E+01
    -14.856  0.4043E-03  0.8000E+01
    -14.773  0.1938E-02  0.8000E+01
    -14.689  0.4739E-02  0.8001E+01
    -14.606  0.2683E-03  0.8001E+01
    -14.523 -0.2830E-01  0.7998E+01
    -14.439 -0.4918E-01  0.7994E+01
    -14.356  0.7896E-01  0.8001E+01
    -14.272  0.4645E+00  0.8039E+01
    -14.189  0.9574E+00  0.8119E+01
    -14.106  0.1286E+01  0.8227E+01
    -14.022  0.1326E+01  0.8338E+01
    -13.939  0.1032E+01  0.8426E+01
    -13.855  0.6047E+00  0.8477E+01
    -13.772  0.7409E+00  0.8540E+01
    -13.689  0.1655E+01  0.8679E+01
    -13.605  0.2615E+01  0.8898E+01
    -13.522  0.3513E+01  0.9192E+01
    -13.438  0.4476E+01  0.9566E+01
    -13.355  0.4448E+01  0.9940E+01
    -13.272  0.3266E+01  0.1021E+02
    -13.188  0.2360E+01  0.1041E+02
    -13.105  0.2447E+01  0.1062E+02
    -13.021  0.3223E+01  0.1089E+02
    -12.938  0.3998E+01  0.1123E+02
    -12.854  0.4086E+01  0.1157E+02
    -12.771  0.3252E+01  0.1184E+02
    -12.688  0.1741E+01  0.1199E+02
    -12.604  0.3772E+00  0.1202E+02
    -12.521 -0.1527E+00  0.1201E+02
    -12.437 -0.1149E+00  0.1200E+02
    -12.354 -0.7153E-01  0.1199E+02
    -12.271 -0.8896E-01  0.1199E+02
    -12.187  0.2390E+00  0.1201E+02
    -12.104  0.1238E+01  0.1211E+02
    -12.020  0.2398E+01  0.1231E+02
    -11.937  0.2684E+01  0.1254E+02
    -11.854  0.2038E+01  0.1271E+02
    -11.770  0.1372E+01  0.1282E+02
    -11.687  0.1009E+01  0.1291E+02
    -11.603  0.9745E+00  0.1299E+02
    -11.520  0.1722E+01  0.1313E+02
    -11.437  0.2643E+01  0.1336E+02
    -11.353  0.2359E+01  0.1356E+02
    -11.270  0.1199E+01  0.1366E+02
    -11.186  0.5835E+00  0.1371E+02
    -11.103  0.1043E+01  0.1379E+02
    -11.020  0.2304E+01  0.1399E+02
    -10.936  0.3829E+01  0.1431E+02
    -10.853  0.4965E+01  0.1472E+02
    -10.769  0.5141E+01  0.1516E+02
    -10.686  0.4440E+01  0.1553E+02
    -10.603  0.3769E+01  0.1585E+02
    -10.519  0.3688E+01  0.1616E+02
    -10.436  0.3436E+01  0.1644E+02
    -10.352  0.2271E+01  0.1664E+02
    -10.269  0.9690E+00  0.1672E+02
    -10.186  0.4671E+00  0.1676E+02
    -10.102  0.5777E+00  0.1681E+02
    -10.019  0.8098E+00  0.1687E+02
     -9.935  0.8660E+00  0.1695E+02
     -9.852  0.5842E+00  0.1699E+02
     -9.769  0.1657E+00  0.1701E+02
     -9.685 -0.7115E-01  0.1700E+02
     -9.602 -0.1081E+00  0.1699E+02
     -9.518  0.4924E-01  0.1700E+02
     -9.435  0.6965E+00  0.1705E+02
     -9.352  0.1965E+01  0.1722E+02
     -9.268  0.3187E+01  0.1749E+02
     -9.185  0.3927E+01  0.1782E+02
     -9.101  0.5224E+01  0.1826E+02
     -9.018  0.7303E+01  0.1887E+02
     -8.935  0.7957E+01  0.1954E+02
     -8.851  0.6173E+01  0.2006E+02
     -8.768  0.3855E+01  0.2038E+02
     -8.684  0.2665E+01  0.2061E+02
     -8.601  0.2574E+01  0.2082E+02
     -8.518  0.3093E+01  0.2108E+02
     -8.434  0.3926E+01  0.2141E+02
     -8.351  0.4800E+01  0.2182E+02
     -8.267  0.5190E+01  0.2225E+02
     -8.184  0.4509E+01  0.2263E+02
     -8.101  0.2967E+01  0.2288E+02
     -8.017  0.2213E+01  0.2306E+02
     -7.934  0.3418E+01  0.2335E+02
     -7.850  0.5041E+01  0.2378E+02
     -7.767  0.5294E+01  0.2422E+02
     -7.684  0.4545E+01  0.2460E+02
     -7.600  0.3600E+01  0.2490E+02
     -7.517  0.3127E+01  0.2517E+02
     -7.433  0.3701E+01  0.2548E+02
     -7.350  0.4528E+01  0.2586E+02
     -7.267  0.4484E+01  0.2624E+02
     -7.183  0.3752E+01  0.2655E+02
     -7.100  0.2804E+01  0.2679E+02
     -7.016  0.1788E+01  0.2694E+02
     -6.933  0.1352E+01  0.2705E+02
     -6.849  0.1990E+01  0.2722E+02
     -6.766  0.3050E+01  0.2747E+02
     -6.683  0.3825E+01  0.2779E+02
     -6.599  0.4220E+01  0.2815E+02
     -6.516  0.4240E+01  0.2850E+02
     -6.432  0.4377E+01  0.2887E+02
     -6.349  0.4792E+01  0.2928E+02
     -6.266  0.4213E+01  0.2963E+02
     -6.182  0.2495E+01  0.2984E+02
     -6.099  0.1570E+01  0.2997E+02
     -6.015  0.1990E+01  0.3014E+02
     -5.932  0.2342E+01  0.3034E+02
     -5.849  0.2108E+01  0.3051E+02
     -5.765  0.1926E+01  0.3067E+02
     -5.682  0.1848E+01  0.3083E+02
     -5.598  0.1411E+01  0.3095E+02
     -5.515  0.6692E+00  0.3100E+02
     -5.432  0.9927E-01  0.3101E+02
     -5.348 -0.1194E+00  0.3100E+02
     -5.265 -0.1623E+00  0.3099E+02
     -5.181  0.5567E-01  0.3099E+02
     -5.098  0.8199E+00  0.3106E+02
     -5.015  0.1724E+01  0.3121E+02
     -4.931  0.1988E+01  0.3137E+02
     -4.848  0.1781E+01  0.3152E+02
     -4.764  0.1778E+01  0.3167E+02
     -4.681  0.1854E+01  0.3183E+02
     -4.598  0.1450E+01  0.3195E+02
     -4.514  0.6573E+00  0.3200E+02
     -4.431  0.6509E-01  0.3201E+02
     -4.347 -0.8941E-01  0.3200E+02
     -4.264 -0.3689E-01  0.3200E+02
     -4.181  0.4276E-02  0.3200E+02
     -4.097  0.7292E-02  0.3200E+02
     -4.014  0.2987E-02  0.3200E+02
     -3.930  0.3519E-02  0.3200E+02
     -3.847  0.1084E-01  0.3200E+02
     -3.764  0.1438E-01  0.3200E+02
     -3.680 -0.3490E-01  0.3200E+02
     -3.597 -0.1560E+00  0.3199E+02
     -3.513 -0.6603E-01  0.3198E+02
     -3.430  0.8592E+00  0.3205E+02
     -3.347  0.2699E+01  0.3228E+02
     -3.263  0.4067E+01  0.3262E+02
     -3.180  0.3413E+01  0.3291E+02
     -3.096  0.1400E+01  0.3303E+02
     -3.013  0.4158E-02  0.3303E+02
     -2.930 -0.2822E+00  0.3300E+02
     -2.846 -0.2676E+00  0.3298E+02
     -2.763 -0.7591E-01  0.3297E+02
     -2.679  0.1030E+01  0.3306E+02
     -2.596  0.3085E+01  0.3332E+02
     -2.513  0.4959E+01  0.3374E+02
     -2.429  0.5625E+01  0.3421E+02
     -2.346  0.4867E+01  0.3462E+02
     -2.262  0.3167E+01  0.3488E+02
     -2.179  0.1338E+01  0.3500E+02
     -2.096  0.1066E+00  0.3500E+02
     -2.012  0.4616E-01  0.3501E+02
     -1.929  0.1553E+01  0.3514E+02
     -1.845  0.4120E+01  0.3548E+02
     -1.762  0.6015E+01  0.3599E+02
     -1.679  0.6566E+01  0.3654E+02
     -1.595  0.6607E+01  0.3710E+02
     -1.512  0.5725E+01  0.3758E+02
     -1.428  0.3703E+01  0.3789E+02
     -1.345  0.2548E+01  0.3810E+02
     -1.262  0.2965E+01  0.3835E+02
     -1.178  0.2960E+01  0.3860E+02
     -1.095  0.1822E+01  0.3876E+02
     -1.011  0.1084E+01  0.3885E+02
     -0.928  0.1294E+01  0.3895E+02
     -0.844  0.1479E+01  0.3908E+02
     -0.761  0.1464E+01  0.3920E+02
     -0.678  0.2433E+01  0.3940E+02
     -0.594  0.4680E+01  0.3980E+02
     -0.511  0.6113E+01  0.4031E+02
     -0.427  0.5069E+01  0.4074E+02
     -0.344  0.3152E+01  0.4100E+02
     -0.261  0.2374E+01  0.4120E+02
     -0.177  0.2455E+01  0.4141E+02
     -0.094  0.2473E+01  0.4162E+02
     -0.010  0.2202E+01  0.4181E+02
      0.073  0.1879E+01  0.4196E+02
      0.156  0.1910E+01  0.4212E+02
      0.240  0.2379E+01  0.4232E+02
      0.323  0.2665E+01  0.4255E+02
      0.407  0.2344E+01  0.4274E+02
      0.490  0.2216E+01  0.4293E+02
      0.573  0.3248E+01  0.4320E+02
      0.657  0.4510E+01  0.4358E+02
      0.740  0.3876E+01  0.4390E+02
      0.824  0.1554E+01  0.4403E+02
      0.907 -0.8892E-01  0.4403E+02
      0.990 -0.2965E+00  0.4400E+02
      1.074 -0.6008E-01  0.4400E+02
      1.157  0.2732E-01  0.4400E+02
      1.241  0.1677E-01  0.4400E+02
      1.324  0.3975E-02  0.4400E+02
      1.407  0.5352E-03  0.4400E+02
      1.491  0.4509E-04  0.4400E+02
      1.574  0.2477E-05  0.4400E+02
      1.658  0.9067E-07  0.4400E+02
      1.741  0.2241E-08  0.4400E+02
      1.824  0.3771E-10  0.4400E+02
      1.908  0.4348E-12  0.4400E+02
      1.991  0.3494E-14  0.4400E+02
      2.075  0.0000E+00  0.4400E+02
      2.158  0.0000E+00  0.4400E+02
      2.241  0.0000E+00  0.4400E+02
      2.325  0.0000E+00  0.4400E+02
      2.408  0.0000E+00  0.4400E+02
      2.492  0.0000E+00  0.4400E+02
      2.575  0.0000E+00  0.4400E+02
      2.658  0.0000E+00  0.4400E+02
      2.87014211    -22.42997081  301     -4.64847604      1.00000000
    -22.430  0.0000E+00  0.0000E+00
    -22.346  0.0000E+00  0.0000E+00
    -22.261  0.0000E+00  0.0000E+00
    -22.177  0.0000E+00  0.0000E+00
    -22.093  0.6931E-27  0.5823E-28
    -22.008  0.5393E-24  0.4537E-25
    -21.924  0.2923E-21  0.2460E-22
    -21.840  0.1101E-18  0.9274E-20
    -21.755  0.2877E-16  0.2426E-17
    -21.671  0.5205E-14  0.4398E-15
    -21.587  0.6515E-12  0.5518E-13
    -21.502  0.5606E-10  0.4765E-11
    -21.418  0.3305E-08  0.2824E-09
    -21.334  0.1326E-06  0.1143E-07
    -21.249  0.3592E-05  0.3132E-06
    -21.165  0.6470E-04  0.5749E-05
    -21.081  0.7571E-03  0.6935E-04
    -20.996  0.5498E-02  0.5311E-03
    -20.912  0.2217E-01  0.2393E-02
    -20.828  0.2987E-01  0.4901E-02
    -20.743 -0.1061E+00 -0.4010E-02
    -20.659 -0.4091E+00 -0.3837E-01
    -20.575  0.2613E-01 -0.3615E-01
    -20.490  0.2353E+01  0.1615E+00
    -20.406  0.4871E+01  0.5706E+00
    -20.322  0.4293E+01  0.9311E+00
    -20.237  0.1456E+01  0.1053E+01
    -20.153 -0.2898E+00  0.1029E+01
    -20.069 -0.5300E+00  0.9844E+00
    -19.984 -0.3816E+00  0.9524E+00
    -19.900  0.7295E+00  0.1014E+01
    -19.816  0.3285E+01  0.1290E+01
    -19.731  0.4886E+01  0.1700E+01
    -19.647  0.3334E+01  0.1980E+01
    -19.563  0.5081E+00  0.2022E+01
    -19.478 -0.5490E+00  0.1976E+01
    -19.394  0.1010E+01  0.2061E+01
    -19.310  0.3745E+01  0.2376E+01
    -19.225  0.4688E+01  0.2769E+01
    -19.141  0.2714E+01  0.2997E+01
    -19.057  0.2400E+00  0.3017E+01
    -18.972 -0.3320E+00  0.2990E+01
    -18.888  0.1171E+01  0.3088E+01
    -18.804  0.3407E+01  0.3374E+01
    -18.719  0.4222E+01  0.3729E+01
    -18.635  0.2711E+01  0.3956E+01
    -18.551  0.8736E+00  0.4030E+01
    -18.466  0.1172E+01  0.4128E+01
    -18.382  0.3227E+01  0.4399E+01
    -18.298  0.4259E+01  0.4757E+01
    -18.213  0.2878E+01  0.4998E+01
    -18.129  0.1013E+01  0.5083E+01
    -18.045  0.7543E+00  0.5147E+01
    -17.960  0.1777E+01  0.5296E+01
    -17.876  0.2649E+01  0.5519E+01
    -17.792  0.2723E+01  0.5747E+01
    -17.707  0.2425E+01  0.5951E+01
    -17.623  0.2375E+01  0.6151E+01
    -17.539  0.2742E+01  0.6381E+01
    -17.454  0.3062E+01  0.6638E+01
    -17.370  0.2655E+01  0.6861E+01
    -17.286  0.1486E+01  0.6985E+01
    -17.201  0.3056E+00  0.7011E+01
    -17.117 -0.1685E+00  0.6997E+01
    -17.033  0.1915E+00  0.7013E+01
    -16.948  0.1044E+01  0.7101E+01
    -16.864  0.1874E+01  0.7259E+01
    -16.780  0.2447E+01  0.7464E+01
    -16.695  0.2735E+01  0.7694E+01
    -16.611  0.2369E+01  0.7892E+01
    -16.527  0.1265E+01  0.7998E+01
    -16.442  0.2219E+00  0.8017E+01
    -16.358 -0.1409E+00  0.8005E+01
    -16.274 -0.7777E-01  0.7998E+01
    -16.189  0.1514E-02  0.7998E+01
    -16.105  0.1228E-01  0.8000E+01
    -16.021  0.4688E-02  0.8000E+01
    -15.936  0.9164E-03  0.8000E+01
    -15.852  0.1094E-03  0.8000E+01
    -15.768  0.8463E-05  0.8000E+01
    -15.683  0.4367E-06  0.8000E+01
    -15.599  0.1526E-07  0.8000E+01
    -15.515  0.3651E-09  0.8000E+01
    -15.430  0.2570E-10  0.8000E+01
    -15.346  0.1112E-08  0.8000E+01
    -15.262  0.4298E-07  0.8000E+01
    -15.177  0.1127E-05  0.8000E+01
    -15.093  0.1981E-04  0.8000E+01
    -15.009  0.2283E-03  0.8000E+01
    -14.924  0.1655E-02  0.8000E+01
    -14.840  0.6849E-02  0.8001E+01
    -14.756  0.1094E-01  0.8002E+01
    -14.671 -0.2468E-01  0.8000E+01
    -14.587 -0.1214E+00  0.7989E+01
    -14.503 -0.4317E-01  0.7986E+01
    -14.418  0.6196E+00  0.8038E+01
    -14.334  0.1595E+01  0.8171E+01
    -14.250  0.1915E+01  0.8332E+01
    -14.165  0.1359E+01  0.8446E+01
    -14.081  0.6141E+00  0.8498E+01
    -13.997  0.5424E-01  0.8503E+01
    -13.912 -0.3181E+00  0.8476E+01
    -13.828 -0.2510E-01  0.8474E+01
    -13.744  0.1665E+01  0.8614E+01
    -13.659  0.4039E+01  0.8952E+01
    -13.575  0.5090E+01  0.9379E+01
    -13.491  0.4441E+01  0.9752E+01
    -13.406  0.3715E+01  0.1006E+02
    -13.322  0.3643E+01  0.1037E+02
    -13.238  0.3386E+01  0.1066E+02
    -13.153  0.2424E+01  0.1086E+02
    -13.069  0.1340E+01  0.1097E+02
    -12.985  0.9257E+00  0.1105E+02
    -12.900  0.1284E+01  0.1116E+02
    -12.816  0.2110E+01  0.1133E+02
    -12.732  0.2980E+01  0.1158E+02
    -12.647  0.2981E+01  0.1183E+02
    -12.563  0.1700E+01  0.1198E+02
    -12.479  0.2549E+00  0.1200E+02
    -12.394  0.1039E+00  0.1201E+02
    -12.310  0.1322E+01  0.1212E+02
    -12.226  0.2328E+01  0.1231E+02
    -12.141  0.1842E+01  0.1247E+02
    -12.057  0.5943E+00  0.1252E+02
    -11.973 -0.1906E+00  0.1250E+02
    -11.888 -0.3075E+00  0.1248E+02
    -11.804  0.3139E+00  0.1250E+02
    -11.720  0.1681E+01  0.1264E+02
    -11.635  0.2835E+01  0.1288E+02
    -11.551  0.2998E+01  0.1313E+02
    -11.467  0.2433E+01  0.1334E+02
    -11.382  0.1409E+01  0.1346E+02
    -11.298  0.4939E+00  0.1350E+02
    -11.214  0.6570E+00  0.1355E+02
    -11.129  0.1715E+01  0.1370E+02
    -11.045  0.2967E+01  0.1395E+02
    -10.961  0.4345E+01  0.1431E+02
    -10.876  0.4581E+01  0.1470E+02
    -10.792  0.2626E+01  0.1492E+02
    -10.708  0.1422E+01  0.1504E+02
    -10.623  0.3852E+01  0.1536E+02
    -10.539  0.6771E+01  0.1593E+02
    -10.455  0.5612E+01  0.1640E+02
    -10.370  0.1878E+01  0.1656E+02
    -10.286 -0.2809E+00  0.1653E+02
    -10.202 -0.3730E+00  0.1650E+02
    -10.117 -0.1150E+00  0.1649E+02
    -10.033 -0.2073E+00  0.1648E+02
     -9.949 -0.1605E-01  0.1647E+02
     -9.864  0.1402E+01  0.1659E+02
     -9.780  0.3401E+01  0.1688E+02
     -9.696  0.3775E+01  0.1719E+02
     -9.611  0.2170E+01  0.1738E+02
     -9.527  0.8582E+00  0.1745E+02
     -9.443  0.1316E+01  0.1756E+02
     -9.358  0.2328E+01  0.1775E+02
     -9.274  0.1916E+01  0.1792E+02
     -9.190  0.6848E+00  0.1797E+02
     -9.105  0.1529E+01  0.1810E+02
     -9.021  0.5253E+01  0.1854E+02
     -8.937  0.8432E+01  0.1925E+02
     -8.852  0.7537E+01  0.1988E+02
     -8.768  0.4293E+01  0.2024E+02
     -8.684  0.2832E+01  0.2048E+02
     -8.599  0.3101E+01  0.2074E+02
     -8.515  0.2615E+01  0.2096E+02
     -8.431  0.1509E+01  0.2109E+02
     -8.346  0.1690E+01  0.2123E+02
     -8.262  0.3924E+01  0.2156E+02
     -8.178  0.6651E+01  0.2212E+02
     -8.093  0.7414E+01  0.2274E+02
     -8.009  0.6052E+01  0.2325E+02
     -7.925  0.4368E+01  0.2362E+02
     -7.840  0.3614E+01  0.2392E+02
     -7.756  0.4023E+01  0.2426E+02
     -7.672  0.4511E+01  0.2464E+02
     -7.587  0.3376E+01  0.2492E+02
     -7.503  0.1003E+01  0.2500E+02
     -7.419 -0.1278E+00  0.2499E+02
     -7.334  0.1298E+01  0.2510E+02
     -7.250  0.3612E+01  0.2541E+02
     -7.166  0.4730E+01  0.2580E+02
     -7.081  0.5404E+01  0.2626E+02
     -6.997  0.6220E+01  0.2678E+02
     -6.913  0.5278E+01  0.2722E+02
     -6.828  0.2792E+01  0.2746E+02
     -6.744  0.1708E+01  0.2760E+02
     -6.660  0.2874E+01  0.2784E+02
     -6.575  0.4219E+01  0.2820E+02
     -6.491  0.3906E+01  0.2852E+02
     -6.407  0.2544E+01  0.2874E+02
     -6.322  0.1919E+01  0.2890E+02
     -6.238  0.2366E+01  0.2910E+02
     -6.154  0.2937E+01  0.2934E+02
     -6.069  0.3166E+01  0.2961E+02
     -5.985  0.3106E+01  0.2987E+02
     -5.901  0.2779E+01  0.3010E+02
     -5.816  0.2503E+01  0.3031E+02
     -5.732  0.2551E+01  0.3053E+02
     -5.648  0.2506E+01  0.3074E+02
     -5.563  0.1933E+01  0.3090E+02
     -5.479  0.1029E+01  0.3099E+02
     -5.395  0.2748E+00  0.3101E+02
     -5.310 -0.4702E-01  0.3101E+02
     -5.226 -0.6341E-01  0.3100E+02
     -5.142 -0.6244E-01  0.3100E+02
     -5.057 -0.8231E-01  0.3099E+02
     -4.973  0.1630E+00  0.3100E+02
     -4.889  0.9043E+00  0.3108E+02
     -4.804  0.1948E+01  0.3124E+02
     -4.720  0.2792E+01  0.3148E+02
     -4.636  0.2929E+01  0.3172E+02
     -4.551  0.2202E+01  0.3191E+02
     -4.467  0.1059E+01  0.3200E+02
     -4.383  0.1963E+00  0.3201E+02
     -4.298 -0.9786E-01  0.3200E+02
     -4.214 -0.6366E-01  0.3200E+02
     -4.130 -0.1741E-02  0.3200E+02
     -4.045  0.1013E-01  0.3200E+02
     -3.961  0.4586E-02  0.3200E+02
     -3.877  0.1962E-02  0.3200E+02
     -3.792  0.5681E-02  0.3200E+02
     -3.708  0.1686E-01  0.3200E+02
     -3.624  0.9456E-02  0.3200E+02
     -3.539 -0.9782E-01  0.3199E+02
     -3.455 -0.2353E+00  0.3197E+02
     -3.371  0.1976E+00  0.3199E+02
     -3.286  0.1734E+01  0.3214E+02
     -3.202  0.3412E+01  0.3242E+02
     -3.118  0.3584E+01  0.3272E+02
     -3.033  0.2310E+01  0.3292E+02
     -2.949  0.9194E+00  0.3300E+02
     -2.865  0.7505E-01  0.3300E+02
     -2.780 -0.1974E+00  0.3299E+02
     -2.696  0.2632E+00  0.3301E+02
     -2.612  0.1527E+01  0.3314E+02
     -2.527  0.3139E+01  0.3340E+02
     -2.443  0.4330E+01  0.3376E+02
     -2.359  0.4548E+01  0.3414E+02
     -2.274  0.4017E+01  0.3448E+02
     -2.190  0.3354E+01  0.3476E+02
     -2.106  0.2922E+01  0.3501E+02
     -2.021  0.3083E+01  0.3527E+02
     -1.937  0.3873E+01  0.3559E+02
     -1.853  0.4390E+01  0.3596E+02
     -1.768  0.3735E+01  0.3628E+02
     -1.684  0.2508E+01  0.3649E+02
     -1.600  0.2166E+01  0.3667E+02
     -1.515  0.3174E+01  0.3693E+02
     -1.431  0.4856E+01  0.3734E+02
     -1.347  0.5947E+01  0.3784E+02
     -1.262  0.5051E+01  0.3827E+02
     -1.178  0.2462E+01  0.3847E+02
     -1.094  0.5854E+00  0.3852E+02
     -1.009  0.9524E+00  0.3860E+02
     -0.925  0.2567E+01  0.3882E+02
     -0.841  0.3532E+01  0.3911E+02
     -0.756  0.3049E+01  0.3937E+02
     -0.672  0.2347E+01  0.3957E+02
     -0.588  0.2889E+01  0.3981E+02
     -0.503  0.3736E+01  0.4012E+02
     -0.419  0.3632E+01  0.4043E+02
     -0.335  0.3137E+01  0.4069E+02
     -0.250  0.2434E+01  0.4090E+02
     -0.166  0.1189E+01  0.4100E+02
     -0.082  0.2496E+00  0.4102E+02
      0.003  0.3705E+00  0.4105E+02
      0.087  0.9937E+00  0.4113E+02
      0.171  0.1674E+01  0.4127E+02
      0.256  0.2878E+01  0.4151E+02
      0.340  0.4327E+01  0.4188E+02
      0.424  0.4772E+01  0.4228E+02
      0.509  0.4307E+01  0.4264E+02
      0.593  0.3995E+01  0.4297E+02
      0.677  0.3603E+01  0.4328E+02
      0.762  0.2888E+01  0.4352E+02
      0.846  0.2586E+01  0.4374E+02
      0.930  0.2233E+01  0.4392E+02
      1.015  0.1073E+01  0.4401E+02
      1.099  0.2662E-01  0.4402E+02
      1.183 -0.1865E+00  0.4400E+02
      1.268 -0.4784E-01  0.4400E+02
      1.352  0.1626E-01  0.4400E+02
      1.436  0.1154E-01  0.4400E+02
      1.521  0.2868E-02  0.4400E+02
      1.605  0.3975E-03  0.4400E+02
      1.689  0.3421E-04  0.4400E+02
      1.774  0.1913E-05  0.4400E+02
      1.858  0.7113E-07  0.4400E+02
      1.942  0.1784E-08  0.4400E+02
      2.027  0.3047E-10  0.4400E+02
      2.111  0.3566E-12  0.4400E+02
      2.195  0.2841E-14  0.4400E+02
      2.280  0.0000E+00  0.4400E+02
      2.364  0.0000E+00  0.4400E+02
      2.448  0.0000E+00  0.4400E+02
      2.533  0.0000E+00  0.4400E+02
      2.617  0.0000E+00  0.4400E+02
      2.701  0.0000E+00  0.4400E+02
      2.786  0.0000E+00  0.4400E+02
      2.870  0.0000E+00  0.4400E+02
      2.72651009    -22.43940734  301     -4.56636415      1.00000000
    -22.439  0.0000E+00  0.0000E+00
    -22.356  0.0000E+00  0.0000E+00
    -22.272  0.0000E+00  0.0000E+00
    -22.188  0.0000E+00  0.0000E+00
    -22.104  0.7929E-27  0.6684E-28
    -22.020  0.6263E-24  0.5286E-25
    -21.936  0.3438E-21  0.2903E-22
    -21.852  0.1308E-18  0.1105E-19
    -21.768  0.3444E-16  0.2914E-17
    -21.684  0.6263E-14  0.5309E-15
    -21.601  0.7861E-12  0.6680E-13
    -21.517  0.6762E-10  0.5767E-11
    -21.433  0.3975E-08  0.3409E-09
    -21.349  0.1586E-06  0.1371E-07
    -21.265  0.4257E-05  0.3725E-06
    -21.181  0.7569E-04  0.6753E-05
    -21.097  0.8700E-03  0.8008E-04
    -21.013  0.6159E-02  0.5992E-03
    -20.929  0.2380E-01  0.2605E-02
    -20.846  0.2732E-01  0.4907E-02
    -20.762 -0.1274E+00 -0.5835E-02
    -20.678 -0.4236E+00 -0.4153E-01
    -20.594  0.1456E+00 -0.2925E-01
    -20.510  0.2628E+01  0.1923E+00
    -20.426  0.4989E+01  0.6127E+00
    -20.342  0.4075E+01  0.9561E+00
    -20.258  0.1187E+01  0.1056E+01
    -20.174 -0.4719E+00  0.1016E+01
    -20.091 -0.7013E+00  0.9573E+00
    -20.007  0.9045E-01  0.9649E+00
    -19.923  0.2556E+01  0.1180E+01
    -19.839  0.4946E+01  0.1597E+01
    -19.755  0.4151E+01  0.1947E+01
    -19.671  0.1239E+01  0.2051E+01
    -19.587 -0.5418E+00  0.2006E+01
    -19.503 -0.5203E+00  0.1962E+01
    -19.419  0.9355E+00  0.2041E+01
    -19.336  0.3370E+01  0.2325E+01
    -19.252  0.4590E+01  0.2712E+01
    -19.168  0.2980E+01  0.2963E+01
    -19.084  0.5442E+00  0.3009E+01
    -19.000  0.2648E+00  0.3031E+01
    -18.916  0.2257E+01  0.3221E+01
    -18.832  0.3973E+01  0.3556E+01
    -18.748  0.3424E+01  0.3845E+01
    -18.665  0.1847E+01  0.4000E+01
    -18.581  0.1935E+01  0.4163E+01
    -18.497  0.3557E+01  0.4463E+01
    -18.413  0.3957E+01  0.4797E+01
    -18.329  0.2455E+01  0.5004E+01
    -18.245  0.1315E+01  0.5114E+01
    -18.161  0.1818E+01  0.5268E+01
    -18.077  0.2879E+01  0.5510E+01
    -17.993  0.2957E+01  0.5760E+01
    -17.910  0.1861E+01  0.5916E+01
    -17.826  0.1178E+01  0.6016E+01
    -17.742  0.2209E+01  0.6202E+01
    -17.658  0.3662E+01  0.6511E+01
    -17.574  0.3486E+01  0.6805E+01
    -17.490  0.1936E+01  0.6968E+01
    -17.406  0.5057E+00  0.7010E+01
    -17.322 -0.2403E+00  0.6990E+01
    -17.238 -0.1882E+00  0.6974E+01
    -17.155  0.1068E+01  0.7064E+01
    -17.071  0.2963E+01  0.7314E+01
    -16.987  0.3649E+01  0.7622E+01
    -16.903  0.2633E+01  0.7844E+01
    -16.819  0.1311E+01  0.7954E+01
    -16.735  0.5163E+00  0.7997E+01
    -16.651  0.1058E+00  0.8006E+01
    -16.567 -0.4697E-01  0.8002E+01
    -16.483 -0.3413E-01  0.7999E+01
    -16.400  0.3155E-03  0.7999E+01
    -16.316  0.6677E-02  0.8000E+01
    -16.232  0.2835E-02  0.8000E+01
    -16.148  0.6049E-03  0.8000E+01
    -16.064  0.7807E-04  0.8000E+01
    -15.980  0.6492E-05  0.8000E+01
    -15.896  0.3584E-06  0.8000E+01
    -15.812  0.1335E-07  0.8000E+01
    -15.728  0.3393E-09  0.8000E+01
    -15.645  0.5918E-11  0.8000E+01
    -15.561  0.7123E-13  0.8000E+01
    -15.477  0.4337E-14  0.8000E+01
    -15.393  0.3922E-12  0.8000E+01
    -15.309  0.2837E-10  0.8000E+01
    -15.225  0.1413E-08  0.8000E+01
    -15.141  0.4820E-07  0.8000E+01
    -15.057  0.1118E-05  0.8000E+01
    -14.974  0.1741E-04  0.8000E+01
    -14.890  0.1787E-03  0.8000E+01
    -14.806  0.1165E-02  0.8000E+01
    -14.722  0.4422E-02  0.8000E+01
    -14.638  0.7004E-02  0.8001E+01
    -14.554 -0.1111E-01  0.8000E+01
    -14.470 -0.6377E-01  0.7995E+01
    -14.386 -0.4802E-01  0.7991E+01
    -14.302  0.2955E+00  0.8015E+01
    -14.219  0.1087E+01  0.8107E+01
    -14.135  0.1866E+01  0.8264E+01
    -14.051  0.1823E+01  0.8418E+01
    -13.967  0.9676E+00  0.8500E+01
    -13.883  0.3610E+00  0.8530E+01
    -13.799  0.4731E+00  0.8570E+01
    -13.715  0.6944E+00  0.8628E+01
    -13.631  0.1045E+01  0.8716E+01
    -13.547  0.2383E+01  0.8917E+01
    -13.464  0.4287E+01  0.9278E+01
    -13.380  0.5205E+01  0.9717E+01
    -13.296  0.4658E+01  0.1011E+02
    -13.212  0.3149E+01  0.1038E+02
    -13.128  0.1742E+01  0.1052E+02
    -13.044  0.1707E+01  0.1067E+02
    -12.960  0.2397E+01  0.1087E+02
    -12.876  0.2149E+01  0.1105E+02
    -12.792  0.1683E+01  0.1119E+02
    -12.709  0.2616E+01  0.1141E+02
    -12.625  0.3703E+01  0.1172E+02
    -12.541  0.2761E+01  0.1196E+02
    -12.457  0.6788E+00  0.1201E+02
    -12.373 -0.6026E-01  0.1201E+02
    -12.289  0.1055E+01  0.1210E+02
    -12.205  0.2296E+01  0.1229E+02
    -12.121  0.2017E+01  0.1246E+02
    -12.037  0.6819E+00  0.1252E+02
    -11.954 -0.2459E+00  0.1250E+02
    -11.870 -0.1493E+00  0.1248E+02
    -11.786  0.9018E+00  0.1256E+02
    -11.702  0.2080E+01  0.1274E+02
    -11.618  0.2359E+01  0.1293E+02
    -11.534  0.2207E+01  0.1312E+02
    -11.450  0.2189E+01  0.1331E+02
    -11.366  0.1882E+01  0.1346E+02
    -11.283  0.1829E+01  0.1362E+02
    -11.199  0.2468E+01  0.1383E+02
    -11.115  0.2832E+01  0.1406E+02
    -11.031  0.2673E+01  0.1429E+02
    -10.947  0.2606E+01  0.1451E+02
    -10.863  0.2469E+01  0.1472E+02
    -10.779  0.1981E+01  0.1488E+02
    -10.695  0.2410E+01  0.1509E+02
    -10.611  0.4662E+01  0.1548E+02
    -10.528  0.6292E+01  0.1601E+02
    -10.444  0.4737E+01  0.1641E+02
    -10.360  0.1595E+01  0.1654E+02
    -10.276 -0.1808E+00  0.1653E+02
    -10.192 -0.3362E+00  0.1650E+02
    -10.108 -0.2042E+00  0.1648E+02
    -10.024 -0.1326E+00  0.1647E+02
     -9.940  0.6238E+00  0.1653E+02
     -9.856  0.2151E+01  0.1671E+02
     -9.773  0.3168E+01  0.1697E+02
     -9.689  0.2893E+01  0.1722E+02
     -9.605  0.1884E+01  0.1738E+02
     -9.521  0.9722E+00  0.1746E+02
     -9.437  0.1044E+01  0.1755E+02
     -9.353  0.2216E+01  0.1773E+02
     -9.269  0.3142E+01  0.1800E+02
     -9.185  0.3252E+01  0.1827E+02
     -9.101  0.3901E+01  0.1860E+02
     -9.018  0.5397E+01  0.1906E+02
     -8.934  0.5899E+01  0.1955E+02
     -8.850  0.4922E+01  0.1997E+02
     -8.766  0.4434E+01  0.2034E+02
     -8.682  0.5082E+01  0.2077E+02
     -8.598  0.4653E+01  0.2116E+02
     -8.514  0.2433E+01  0.2137E+02
     -8.430  0.1515E+01  0.2149E+02
     -8.346  0.3987E+01  0.2183E+02
     -8.263  0.6623E+01  0.2239E+02
     -8.179  0.5432E+01  0.2285E+02
     -8.095  0.2486E+01  0.2306E+02
     -8.011  0.2210E+01  0.2324E+02
     -7.927  0.4366E+01  0.2361E+02
     -7.843  0.6006E+01  0.2412E+02
     -7.759  0.5752E+01  0.2460E+02
     -7.675  0.3658E+01  0.2491E+02
     -7.592  0.9894E+00  0.2499E+02
     -7.508  0.1561E+00  0.2501E+02
     -7.424  0.2093E+01  0.2518E+02
     -7.340  0.4440E+01  0.2556E+02
     -7.256  0.4664E+01  0.2595E+02
     -7.172  0.3544E+01  0.2625E+02
     -7.088  0.2871E+01  0.2649E+02
     -7.004  0.2623E+01  0.2671E+02
     -6.920  0.2436E+01  0.2692E+02
     -6.837  0.3353E+01  0.2720E+02
     -6.753  0.5804E+01  0.2769E+02
     -6.669  0.7231E+01  0.2830E+02
     -6.585  0.5421E+01  0.2875E+02
     -6.501  0.2282E+01  0.2895E+02
     -6.417  0.9173E+00  0.2902E+02
     -6.333  0.1485E+01  0.2915E+02
     -6.249  0.2019E+01  0.2932E+02
     -6.165  0.1885E+01  0.2948E+02
     -6.082  0.2381E+01  0.2968E+02
     -5.998  0.3900E+01  0.3001E+02
     -5.914  0.4921E+01  0.3042E+02
     -5.830  0.4120E+01  0.3077E+02
     -5.746  0.2141E+01  0.3095E+02
     -5.662  0.6097E+00  0.3100E+02
     -5.578  0.4474E-01  0.3101E+02
     -5.494 -0.3572E-01  0.3100E+02
     -5.410 -0.1144E-01  0.3100E+02
     -5.327 -0.3857E-01  0.3100E+02
     -5.243 -0.1418E+00  0.3099E+02
     -5.159 -0.3236E-02  0.3099E+02
     -5.075  0.8427E+00  0.3106E+02
     -4.991  0.2206E+01  0.3124E+02
     -4.907  0.3161E+01  0.3151E+02
     -4.823  0.2986E+01  0.3176E+02
     -4.739  0.1911E+01  0.3192E+02
     -4.655  0.8051E+00  0.3199E+02
     -4.572  0.1852E+00  0.3201E+02
     -4.488 -0.2549E-01  0.3200E+02
     -4.404 -0.3985E-01  0.3200E+02
     -4.320 -0.7730E-02  0.3200E+02
     -4.236  0.5846E-02  0.3200E+02
     -4.152  0.4072E-02  0.3200E+02
     -4.068  0.1179E-02  0.3200E+02