    8    8   10    1
  0.7004359E+02  0.6524186E-09  0.5356163E-09  0.2021747E-08  0.1000000E-14
   300.000000000000     
  CAR 
 unknown system                          
     32      4     22
 
  0.2500000E+00  0.2500000E+00  0.0000000E+00  0.2500000E+00
    1      -21.749381   1.000000
    2      -19.908917   1.000000
    3      -17.107565   1.000000
    4      -16.820380   1.000000
    5      -15.901330   1.000000
    6      -13.734515   1.000000
    7      -11.972656   1.000000
    8      -11.110569   1.000000
    9      -10.081819   1.000000
   10       -9.657368   1.000000
   11       -8.569597   1.000000
   12       -7.739961   1.000000
   13       -7.474793   1.000000
   14       -7.402606   1.000000
   15       -5.567549   1.000000
   16       -4.821061   1.000000
   17       -3.386908   0.003395
   18       -1.253206   0.000000
   19        0.569812   0.000000
   20        0.888816   0.000000
   21        1.310880   0.000000
   22        1.719870   0.000000
 
  0.2500000E+00  0.3074681E-16  0.0000000E+00  0.2500000E+00
    1      -21.906104   1.000000
    2      -18.900692   1.000000
    3      -18.254632   1.000000
    4      -17.250021   1.000000
    5      -15.499536   1.000000
    6      -13.295474   1.000000
    7      -12.390230   1.000000
    8      -10.333996   1.000000
    9       -9.794007   1.000000
   10       -9.614430   1.000000
   11       -8.955782   1.000000
   12       -7.982575   1.000000
   13       -7.829219   1.000000
   14       -6.903760   1.000000
   15       -5.430506   1.000000
   16       -5.165491   1.000000
   17       -3.682587  -0.045601
   18       -1.476282   0.000000
   19        0.517997   0.000000
   20        0.773364   0.000000
   21        1.308810   0.000000
   22        1.440561   0.000000
 
 -0.2500000E+00  0.2500000E+00  0.0000000E+00  0.2500000E+00
    1      -21.614339   1.000000
    2      -19.844699   1.000000
    3      -18.509691   1.000000
    4      -15.999659   1.000000
    5      -15.526501   1.000000
    6      -12.751014   1.000000
    7      -11.965379   1.000000
    8      -11.273966   1.000000
    9      -10.246742   1.000000
   10       -9.346780   1.000000
   11       -9.327267   1.000000
   12       -8.279916   1.000000
   13       -7.563211   1.000000
   14       -7.248283   1.000000
   15       -6.751037   1.000000
   16       -4.011006   1.042134
   17       -3.193659   0.000073
   18       -0.623918   0.000000
   19        0.595012   0.000000
   20        0.943300   0.000000
   21        1.200897   0.000000
   22        1.736323   0.000000
 
 -0.2500000E+00  0.5000000E+00  0.0000000E+00  0.2500000E+00
    1      -21.191685   1.000000
    2      -20.770903   1.000000
    3      -17.930313   1.000000
    4      -16.057441   1.000000
    5      -14.538970   1.000000
    6      -13.751221   1.000000
    7      -12.512283   1.000000
    8      -11.398639   1.000000
    9      -10.221738   1.000000
   10       -8.860222   1.000000
   11       -8.765134   1.000000
   12       -8.513169   1.000000
   13       -7.981373   1.000000
   14       -7.535558   1.000000
   15       -6.268430   1.000000
   16       -4.645459   0.999999
   17       -1.981495   0.000000
   18       -0.852097   0.000000
   19        1.192286   0.000000
   20        1.239007   0.000000
   21        1.613538   0.000000
   22        1.937497   0.000000
