       N       E                     dE             d eps       ncg     rms          rms(c)
DAV:   1     0.275776742663E+03    0.27578E+03   -0.11206E+04   192   0.114E+03
DAV:   2    -0.809372690299E+01   -0.28387E+03   -0.27619E+03   282   0.218E+02
DAV:   3    -0.621478299517E+02   -0.54054E+02   -0.53479E+02   218   0.110E+02
DAV:   4    -0.644655369960E+02   -0.23177E+01   -0.22836E+01   214   0.298E+01
DAV:   5    -0.645692175718E+02   -0.10368E+00   -0.10329E+00   258   0.513E+00    0.104E+01
DAV:   6    -0.622020733932E+02    0.23671E+01   -0.25342E+00   224   0.101E+01    0.586E+00
DAV:   7    -0.615105738635E+02    0.69150E+00   -0.30743E+00   224   0.109E+01    0.140E+00
DAV:   8    -0.615139002239E+02   -0.33264E-02   -0.27988E-01   224   0.334E+00    0.408E-01
DAV:   9    -0.615102994583E+02    0.36008E-02   -0.14135E-02   272   0.752E-01    0.178E-01
DAV:  10    -0.615088514753E+02    0.14480E-02   -0.21352E-03   232   0.288E-01    0.100E-01
DAV:  11    -0.615082350089E+02    0.61647E-03   -0.89303E-04   224   0.182E-01    0.472E-02
DAV:  12    -0.615085540764E+02   -0.31907E-03   -0.43999E-04   224   0.100E-01    0.356E-02
DAV:  13    -0.615100886823E+02   -0.15346E-02   -0.48696E-04   218   0.983E-02    0.203E-02
DAV:  14    -0.615108739387E+02   -0.78526E-03   -0.10136E-04   224   0.418E-02    0.107E-02
DAV:  15    -0.615115609880E+02   -0.68705E-03   -0.24633E-05   224   0.205E-02    0.626E-03
DAV:  16    -0.615121608643E+02   -0.59988E-03   -0.42118E-05   208   0.223E-02    0.317E-03
DAV:  17    -0.615123564348E+02   -0.19557E-03   -0.13062E-05   192   0.116E-02    0.186E-03
DAV:  18    -0.615124412670E+02   -0.84832E-04   -0.60720E-06   192   0.756E-03    0.674E-04
DAV:  19    -0.615124573039E+02   -0.16037E-04   -0.41078E-07   160   0.282E-03    0.376E-04
DAV:  20    -0.615124685714E+02   -0.11268E-04   -0.73078E-07   192   0.245E-03    0.236E-04
DAV:  21    -0.615124740673E+02   -0.54959E-05   -0.14386E-07   160   0.142E-03    0.178E-04
DAV:  22    -0.615124766083E+02   -0.25410E-05   -0.39938E-08   160   0.901E-04    0.112E-04
DAV:  23    -0.615124783219E+02   -0.17137E-05   -0.86546E-09   154   0.664E-04    0.531E-05
DAV:  24    -0.615124788778E+02   -0.55585E-06   -0.33113E-09   142   0.403E-04
    1 T=   304. E= -.61782613E+02 F= -.62096469E+02 E0= -.62097850E+02  EK= 0.31386E+00 SP= 0.00E+00 SK= 0.00E+00
       N       E                     dE             d eps       ncg     rms          rms(c)
DAV:   1    -0.615286273962E+02   -0.16149E-01   -0.11728E+00   176   0.795E+00    0.213E-01
DAV:   2    -0.615285698357E+02    0.57561E-04   -0.23315E-02   240   0.102E+00    0.154E-01
DAV:   3    -0.615291498101E+02   -0.57997E-03   -0.18125E-03   228   0.292E-01    0.916E-02
DAV:   4    -0.615296774306E+02   -0.52762E-03   -0.29663E-04   240   0.123E-01    0.341E-02
DAV:   5    -0.615297801252E+02   -0.10269E-03   -0.63995E-05   232   0.686E-02    0.967E-03
DAV:   6    -0.615298055574E+02   -0.25432E-04   -0.18957E-05   224   0.297E-02    0.546E-03
DAV:   7    -0.615298102997E+02   -0.47423E-05   -0.14738E-06   160   0.103E-02    0.260E-03
DAV:   8    -0.615298151603E+02   -0.48605E-05   -0.10937E-06   160   0.741E-03    0.745E-04
DAV:   9    -0.615298223323E+02   -0.71720E-05   -0.34980E-07   160   0.448E-03    0.337E-04
DAV:  10    -0.615298235667E+02   -0.12344E-05   -0.89169E-08   142   0.219E-03    0.206E-04
DAV:  11    -0.615298239258E+02   -0.35916E-06   -0.28678E-08   142   0.119E-03
    2 T=   316. E= -.61786328E+02 F= -.62112674E+02 E0= -.62114084E+02  EK= 0.32635E+00 SP= 0.66E-06 SK= 0.20E-07
       N       E                     dE             d eps       ncg     rms          rms(c)
DAV:   1    -0.615559431401E+02   -0.26120E-01   -0.12545E+00   176   0.819E+00    0.221E-01
DAV:   2    -0.615570473875E+02   -0.11042E-02   -0.21846E-02   240   0.104E+00    0.591E-02
DAV:   3    -0.615571535512E+02   -0.10616E-03   -0.13316E-03   212   0.235E-01    0.358E-02
DAV:   4    -0.615571716359E+02   -0.18085E-04   -0.11786E-04   288   0.697E-02    0.248E-02
DAV:   5    -0.615571622329E+02    0.94031E-05   -0.73853E-05   240   0.611E-02    0.159E-02
DAV:   6    -0.615571889892E+02   -0.26756E-04   -0.16144E-05   224   0.279E-02    0.118E-02
DAV:   7    -0.615572113454E+02   -0.22356E-04   -0.29870E-06   216   0.107E-02    0.597E-03
DAV:   8    -0.615572151075E+02   -0.37621E-05   -0.49159E-07   160   0.563E-03    0.326E-03
DAV:   9    -0.615572181291E+02   -0.30216E-05   -0.79793E-07   160   0.586E-03    0.465E-04
DAV:  10    -0.615572190860E+02   -0.95691E-06   -0.23917E-07   160   0.325E-03
    3 T=   340. E= -.61786628E+02 F= -.62138732E+02 E0= -.62140184E+02  EK= 0.35210E+00 SP= 0.41E-05 SK= 0.37E-06
       N       E                     dE             d eps       ncg     rms          rms(c)
DAV:   1    -0.615877204459E+02   -0.30502E-01   -0.13742E+00   176   0.854E+00    0.225E-01
DAV:   2    -0.615889970848E+02   -0.12766E-02   -0.24007E-02   240   0.106E+00    0.399E-02
DAV:   3    -0.615891402299E+02   -0.14315E-03   -0.12463E-03   226   0.223E-01    0.113E-02
DAV:   4    -0.615891350654E+02    0.51645E-05   -0.60047E-05   280   0.452E-02    0.109E-02
DAV:   5    -0.615891432854E+02   -0.82199E-05   -0.37993E-06   216   0.148E-02    0.386E-03
DAV:   6    -0.615891523182E+02   -0.90328E-05   -0.23907E-06   192   0.967E-03    0.664E-03
DAV:   7    -0.615891520978E+02    0.22043E-06   -0.27253E-07   160   0.384E-03
    4 T=   370. E= -.61787122E+02 F= -.62169244E+02 E0= -.62170740E+02  EK= 0.38211E+00 SP= 0.14E-04 SK= 0.23E-05
       N       E                     dE             d eps       ncg     rms          rms(c)
DAV:   1    -0.616153804020E+02   -0.26228E-01   -0.15021E+00   176   0.893E+00    0.228E-01
DAV:   2    -0.616168447015E+02   -0.14643E-02   -0.27610E-02   248   0.112E+00    0.465E-02
DAV:   3    -0.616169926497E+02   -0.14795E-03   -0.11971E-03   226   0.220E-01    0.844E-03
DAV:   4    -0.616169994490E+02   -0.67993E-05   -0.57398E-05   280   0.433E-02    0.709E-03
DAV:   5    -0.616170012626E+02   -0.18136E-05   -0.91035E-07   160   0.682E-03    0.326E-03
DAV:   6    -0.616170017185E+02   -0.45586E-06   -0.38167E-07   160   0.425E-03
    5 T=   395. E= -.61787645E+02 F= -.62195704E+02 E0= -.62197238E+02  EK= 0.40802E+00 SP= 0.34E-04 SK= 0.82E-05
       N       E                     dE             d eps       ncg     rms          rms(c)
DAV:   1    -0.616299860853E+02   -0.12985E-01   -0.15973E+00   176   0.921E+00    0.233E-01
DAV:   2    -0.616315885390E+02   -0.16025E-02   -0.30399E-02   248   0.119E+00    0.468E-02
DAV:   3    -0.616317320020E+02   -0.14346E-03   -0.13516E-03   220   0.231E-01    0.806E-03
DAV:   4    -0.616317414750E+02   -0.94729E-05   -0.64484E-05   280   0.449E-02    0.612E-03
DAV:   5    -0.616317425215E+02   -0.10465E-05   -0.77327E-07   168   0.618E-03    0.485E-03
DAV:   6    -0.616317428587E+02   -0.33722E-06   -0.38105E-07   160   0.420E-03
    6 T=   407. E= -.61787958E+02 F= -.62209173E+02 E0= -.62210737E+02  EK= 0.42113E+00 SP= 0.69E-04 SK= 0.20E-04
       N       E                     dE             d eps       ncg     rms          rms(c)
DAV:   1    -0.616258584011E+02    0.58841E-02   -0.16232E+00   176   0.928E+00    0.237E-01
DAV:   2    -0.616274731820E+02   -0.16148E-02   -0.31139E-02   248   0.121E+00    0.525E-02
DAV:   3    -0.616276364349E+02   -0.16325E-03   -0.15166E-03   234   0.241E-01    0.108E-02
DAV:   4    -0.616276459754E+02   -0.95405E-05   -0.66072E-05   280   0.452E-02    0.120E-02
DAV:   5    -0.616276515705E+02   -0.55951E-05   -0.10019E-06   168   0.677E-03    0.581E-03
DAV:   6    -0.616276530321E+02   -0.14617E-05   -0.53110E-07   160   0.480E-03    0.378E-03
DAV:   7    -0.616276528195E+02    0.21265E-06   -0.17949E-07   160   0.315E-03
    7 T=   402. E= -.61787905E+02 F= -.62203982E+02 E0= -.62205564E+02  EK= 0.41592E+00 SP= 0.12E-03 SK= 0.39E-04
       N       E                     dE             d eps       ncg     rms          rms(c)
DAV:   1    -0.616029783027E+02    0.24675E-01   -0.15642E+00   176   0.911E+00    0.233E-01
DAV:   2    -0.616045213847E+02   -0.15431E-02   -0.29337E-02   232   0.119E+00    0.443E-02
DAV:   3    -0.616047218432E+02   -0.20046E-03   -0.18223E-03   234   0.258E-01    0.400E-03
DAV:   4    -0.616047360128E+02   -0.14170E-04   -0.83230E-05   272   0.525E-02    0.676E-03
DAV:   5    -0.616047361957E+02   -0.18282E-06   -0.12904E-06   200   0.729E-03
    8 T=   379. E= -.61787496E+02 F= -.62180157E+02 E0= -.62181741E+02  EK= 0.39242E+00 SP= 0.18E-03 SK= 0.60E-04
       N       E                     dE             d eps       ncg     rms          rms(c)
DAV:   1    -0.615670695089E+02    0.37667E-01   -0.14317E+00   176   0.870E+00    0.222E-01
DAV:   2    -0.615685404843E+02   -0.14710E-02   -0.26094E-02   232   0.113E+00    0.531E-02
DAV:   3    -0.615687192039E+02   -0.17872E-03   -0.17118E-03   250   0.248E-01    0.587E-03
DAV:   4    -0.615687269375E+02   -0.77336E-05   -0.62422E-05   272   0.443E-02    0.802E-03
DAV:   5    -0.615687264527E+02    0.48477E-06   -0.72715E-07   176   0.556E-03
    9 T=   344. E= -.61786872E+02 F= -.62143439E+02 E0= -.62144999E+02  EK= 0.35623E+00 SP= 0.26E-03 SK= 0.77E-04
       N       E                     dE             d eps       ncg     rms          rms(c)
DAV:   1    -0.615274471771E+02    0.41280E-01   -0.12601E+00   176   0.815E+00    0.203E-01
DAV:   2    -0.615288111449E+02   -0.13640E-02   -0.22163E-02   232   0.105E+00    0.536E-02
DAV:   3    -0.615289626129E+02   -0.15147E-03   -0.14547E-03   242   0.230E-01    0.734E-03
DAV:   4    -0.615289721235E+02   -0.95106E-05   -0.63600E-05   272   0.450E-02    0.374E-03
DAV:   5    -0.615289717377E+02    0.38579E-06   -0.94626E-07   168   0.695E-03
   10 T=   306. E= -.61786220E+02 F= -.62103173E+02 E0= -.62104679E+02  EK= 0.31652E+00 SP= 0.35E-03 SK= 0.85E-04
       N       E                     dE             d eps       ncg     rms          rms(c)
DAV:   1    -0.614940296003E+02    0.34943E-01   -0.10921E+00   176   0.757E+00    0.181E-01
DAV:   2    -0.614952520120E+02   -0.12224E-02   -0.18513E-02   224   0.957E-01    0.646E-02
DAV:   3    -0.614953851008E+02   -0.13309E-03   -0.12932E-03   238   0.216E-01    0.990E-03
DAV:   4    -0.614954165649E+02   -0.31464E-04   -0.45826E-05   264   0.397E-02    0.689E-03
DAV:   5    -0.614954211206E+02   -0.45556E-05   -0.89984E-07   168   0.643E-03    0.645E-03
DAV:   6    -0.614954256366E+02   -0.45160E-05   -0.44920E-07   160   0.430E-03    0.611E-03
DAV:   7    -0.614954314066E+02   -0.57701E-05   -0.25762E-07   160   0.349E-03    0.462E-03
DAV:   8    -0.614954336640E+02   -0.22573E-05   -0.26642E-07   148   0.349E-03    0.260E-03
DAV:   9    -0.614954345287E+02   -0.86468E-06   -0.11575E-07   154   0.236E-03
   11 T=   274. E= -.61785725E+02 F= -.62069316E+02 E0= -.62070743E+02  EK= 0.28308E+00 SP= 0.43E-03 SK= 0.82E-04
       N       E                     dE             d eps       ncg     rms          rms(c)
DAV:   1    -0.614745454333E+02    0.20888E-01   -0.96757E-01   176   0.713E+00    0.164E-01
DAV:   2    -0.614757059628E+02   -0.11605E-02   -0.15938E-02   224   0.887E-01    0.595E-02
DAV:   3    -0.614758422381E+02   -0.13628E-03   -0.11161E-03   238   0.200E-01    0.169E-02
DAV:   4    -0.614758459888E+02   -0.37507E-05   -0.41685E-05   256   0.374E-02    0.141E-02
DAV:   5    -0.614758482783E+02   -0.22896E-05   -0.10079E-06   168   0.695E-03    0.417E-03
DAV:   6    -0.614758508740E+02   -0.25957E-05   -0.53793E-07   160   0.517E-03    0.268E-03
DAV:   7    -0.614758536744E+02   -0.28003E-05   -0.20113E-07   160   0.330E-03    0.345E-03
DAV:   8    -0.614758573634E+02   -0.36891E-05   -0.27353E-07   160   0.347E-03    0.612E-03
DAV:   9    -0.614758584324E+02   -0.10690E-05   -0.82918E-08   142   0.198E-03    0.336E-03
DAV:  10    -0.614758594357E+02   -0.10033E-05   -0.12184E-07   154   0.207E-03    0.165E-03
DAV:  11    -0.614758605604E+02   -0.11247E-05   -0.42771E-08   142   0.135E-03    0.119E-03
DAV:  12    -0.614758609306E+02   -0.37025E-06   -0.17570E-08   136   0.819E-04
   12 T=   255. E= -.61785489E+02 F= -.62049611E+02 E0= -.62050943E+02  EK= 0.26354E+00 SP= 0.51E-03 SK= 0.72E-04
       N       E                     dE             d eps       ncg     rms          rms(c)
DAV:   1    -0.614727231670E+02    0.31374E-02   -0.91237E-01   176   0.695E+00    0.160E-01
DAV:   2    -0.614738750770E+02   -0.11519E-02   -0.14769E-02   224   0.850E-01    0.466E-02
DAV:   3    -0.614739801857E+02   -0.10511E-03   -0.96730E-04   244   0.187E-01    0.101E-02
DAV:   4    -0.614739889265E+02   -0.87409E-05   -0.38898E-05   256   0.353E-02    0.364E-03
DAV:   5    -0.614739904521E+02   -0.15256E-05   -0.72964E-07   160   0.648E-03    0.340E-03
DAV:   6    -0.614739915746E+02   -0.11224E-05   -0.41194E-07   160   0.444E-03    0.326E-03
DAV:   7    -0.614739923114E+02   -0.73681E-06   -0.12985E-07   160   0.270E-03
   13 T=   253. E= -.61785563E+02 F= -.62047796E+02 E0= -.62049035E+02  EK= 0.26158E+00 SP= 0.59E-03 SK= 0.60E-04
       N       E                     dE             d eps       ncg     rms          rms(c)
DAV:   1    -0.614876099558E+02   -0.13618E-01   -0.93389E-01   176   0.707E+00    0.169E-01
DAV:   2    -0.614887863123E+02   -0.11764E-02   -0.15339E-02   232   0.856E-01    0.264E-02
DAV:   3    -0.614888855576E+02   -0.99245E-04   -0.87386E-04   242   0.179E-01    0.691E-03
DAV:   4    -0.614888929711E+02   -0.74134E-05   -0.36832E-05   264   0.340E-02    0.648E-03
DAV:   5    -0.614888935312E+02   -0.56015E-06   -0.57220E-07   160   0.550E-03
   14 T=   267. E= -.61785913E+02 F= -.62062936E+02 E0= -.62064096E+02  EK= 0.27631E+00 SP= 0.66E-03 SK= 0.51E-04
       N       E                     dE             d eps       ncg     rms          rms(c)
DAV:   1    -0.615141472472E+02   -0.25254E-01   -0.10193E+00   176   0.742E+00    0.186E-01
DAV:   2    -0.615153851327E+02   -0.12379E-02   -0.17355E-02   240   0.901E-01    0.173E-02
DAV:   3    -0.615155004600E+02   -0.11533E-03   -0.88243E-04   248   0.180E-01    0.593E-03
DAV:   4    -0.615155115830E+02   -0.11123E-04   -0.38294E-05   264   0.344E-02    0.433E-03
DAV:   5    -0.615155124765E+02   -0.89349E-06   -0.36356E-07   160   0.441E-03
   15 T=   293. E= -.61786426E+02 F= -.62089977E+02 E0= -.62091082E+02  EK= 0.30278E+00 SP= 0.72E-03 SK= 0.47E-04
       N       E                     dE             d eps       ncg     rms          rms(c)
DAV:   1    -0.615447710409E+02   -0.29259E-01   -0.11420E+00   176   0.786E+00    0.204E-01
DAV:   2    -0.615461763179E+02   -0.14053E-02   -0.20559E-02   248   0.976E-01    0.179E-02
DAV:   3    -0.615462872166E+02   -0.11090E-03   -0.92291E-04   234   0.185E-01    0.168E-02
DAV:   4    -0.615462960893E+02   -0.88727E-05   -0.47572E-05   280   0.383E-02    0.948E-03
DAV:   5    -0.615462956095E+02    0.47979E-06   -0.11106E-06   168   0.759E-03
   16 T=   323. E= -.61786973E+02 F= -.62121363E+02 E0= -.62122439E+02  EK= 0.33355E+00 SP= 0.79E-03 SK= 0.49E-04
       N       E                     dE             d eps       ncg     rms          rms(c)
DAV:   1    -0.615717360332E+02   -0.25440E-01   -0.12691E+00   176   0.828E+00    0.219E-01
DAV:   2    -0.615732740837E+02   -0.15381E-02   -0.23731E-02   248   0.105E+00    0.249E-02
DAV:   3    -0.615733831783E+02   -0.10909E-03   -0.10066E-03   234   0.194E-01    0.870E-03
DAV:   4    -0.615733911617E+02   -0.79834E-05   -0.51866E-05   280   0.397E-02    0.766E-03
DAV:   5    -0.615733961132E+02   -0.49515E-05   -0.59773E-07   168   0.559E-03    0.315E-03
DAV:   6    -0.615733997648E+02   -0.36516E-05   -0.27175E-07   160   0.339E-03    0.168E-03
DAV:   7    -0.615734024917E+02   -0.27269E-05   -0.11637E-07   160   0.215E-03    0.143E-03
DAV:   8    -0.615734044999E+02   -0.20082E-05   -0.58387E-08   160   0.151E-03    0.117E-03
DAV:   9    -0.615734054322E+02   -0.93230E-06   -0.45414E-08   160   0.119E-03
   17 T=   349. E= -.61787406E+02 F= -.62149245E+02 E0= -.62150319E+02  EK= 0.36092E+00 SP= 0.86E-03 SK= 0.58E-04
       N       E                     dE             d eps       ncg     rms          rms(c)
DAV:   1    -0.615892038431E+02   -0.15799E-01   -0.13706E+00   176   0.857E+00    0.229E-01
DAV:   2    -0.615907655475E+02   -0.15617E-02   -0.25869E-02   248   0.110E+00    0.293E-02
DAV:   3    -0.615908766034E+02   -0.11106E-03   -0.10754E-03   234   0.203E-01    0.550E-03
DAV:   4    -0.615908853302E+02   -0.87269E-05   -0.53191E-05   280   0.401E-02    0.352E-03
DAV:   5    -0.615908951478E+02   -0.98176E-05   -0.66833E-07   160   0.621E-03    0.176E-03
DAV:   6    -0.615908986641E+02   -0.35162E-05   -0.27562E-07   160   0.339E-03    0.101E-03
DAV:   7    -0.615908993946E+02   -0.73052E-06   -0.65086E-08   160   0.175E-03
   18 T=   367. E= -.61787624E+02 F= -.62167659E+02 E0= -.62168754E+02  EK= 0.37903E+00 SP= 0.93E-03 SK= 0.74E-04
       N       E                     dE             d eps       ncg     rms          rms(c)
DAV:   1    -0.615945084273E+02   -0.36098E-02   -0.14274E+00   176   0.872E+00    0.238E-01
DAV:   2    -0.615959602782E+02   -0.14519E-02   -0.26440E-02   248   0.112E+00    0.376E-02
DAV:   3    -0.615960864238E+02   -0.12615E-03   -0.11814E-03   234   0.214E-01    0.568E-03
DAV:   4    -0.615960961174E+02   -0.96936E-05   -0.55458E-05   280   0.415E-02    0.503E-03
DAV:   5    -0.615960968404E+02   -0.72299E-06   -0.43585E-07   160   0.470E-03
   19 T=   372. E= -.61787637E+02 F= -.62173886E+02 E0= -.62175019E+02  EK= 0.38513E+00 SP= 0.10E-02 SK= 0.95E-04
       N       E                     dE             d eps       ncg     rms          rms(c)
DAV:   1    -0.615881729567E+02    0.79232E-02   -0.14329E+00   176   0.872E+00    0.245E-01
DAV:   2    -0.615894152186E+02   -0.12423E-02   -0.25854E-02   248   0.112E+00    0.396E-02
DAV:   3    -0.615895636119E+02   -0.14839E-03   -0.13328E-03   242   0.227E-01    0.616E-03
DAV:   4    -0.615895705857E+02   -0.69738E-05   -0.52767E-05   280   0.405E-02    0.502E-03
DAV:   5    -0.615895750723E+02   -0.44865E-05   -0.54337E-07   154   0.564E-03    0.189E-03
DAV:   6    -0.615895781666E+02   -0.30943E-05   -0.20398E-07   160   0.334E-03    0.134E-03
DAV:   7    -0.615895796326E+02   -0.14660E-05   -0.11124E-07   160   0.232E-03    0.136E-03
DAV:   8    -0.615895799590E+02   -0.32648E-06   -0.42089E-08   160   0.156E-03
   20 T=   367. E= -.61787510E+02 F= -.62168450E+02 E0= -.62169632E+02  EK= 0.37971E+00 SP= 0.11E-02 SK= 0.12E-03
       N       E                     dE             d eps       ncg     rms          rms(c)
DAV:   1    -0.615730173439E+02    0.16562E-01   -0.13928E+00   176   0.861E+00    0.248E-01
DAV:   2    -0.615740822162E+02   -0.10649E-02   -0.24944E-02   240   0.113E+00    0.423E-02
DAV:   3    -0.615742647937E+02   -0.18258E-03   -0.15982E-03   248   0.245E-01    0.745E-03
DAV:   4    -0.615742710392E+02   -0.62455E-05   -0.56288E-05   272   0.435E-02    0.673E-03
DAV:   5    -0.615742711850E+02   -0.14575E-06   -0.71940E-07   168   0.596E-03
   21 T=   353. E= -.61787293E+02 F= -.62154199E+02 E0= -.62155434E+02  EK= 0.36554E+00 SP= 0.12E-02 SK= 0.14E-03
       N       E                     dE             d eps       ncg     rms          rms(c)
DAV:   1    -0.615534290205E+02    0.20842E-01   -0.13194E+00   176   0.842E+00    0.241E-01
DAV:   2    -0.615544353364E+02   -0.10063E-02   -0.24075E-02   232   0.113E+00    0.388E-02
DAV:   3    -0.615546374783E+02   -0.20214E-03   -0.17875E-03   230   0.258E-01    0.103E-02
DAV:   4    -0.615546475282E+02   -0.10050E-04   -0.67349E-05   272   0.469E-02    0.111E-02
DAV:   5    -0.615546484350E+02   -0.90685E-06   -0.79984E-07   154   0.670E-03
   22 T=   336. E= -.61786993E+02 F= -.62135524E+02 E0= -.62136812E+02  EK= 0.34703E+00 SP= 0.13E-02 SK= 0.16E-03
       N       E                     dE             d eps       ncg     rms          rms(c)
DAV:   1    -0.615353237062E+02    0.19324E-01   -0.12337E+00   176   0.819E+00    0.226E-01
DAV:   2    -0.615363112569E+02   -0.98755E-03   -0.22736E-02   232   0.110E+00    0.622E-02
DAV:   3    -0.615365624701E+02   -0.25121E-03   -0.17479E-03   222   0.255E-01    0.160E-02
DAV:   4    -0.615365784610E+02   -0.15991E-04   -0.72380E-05   272   0.483E-02    0.145E-02
DAV:   5    -0.615365763771E+02    0.20838E-05   -0.11846E-06   154   0.840E-03    0.849E-03
DAV:   6    -0.615365768920E+02   -0.51485E-06   -0.17217E-06   168   0.931E-03
   23 T=   319. E= -.61786615E+02 F= -.62118212E+02 E0= -.62119550E+02  EK= 0.32997E+00 SP= 0.15E-02 SK= 0.17E-03
       N       E                     dE             d eps       ncg     rms          rms(c)
DAV:   1    -0.615254883977E+02    0.11088E-01   -0.11652E+00   176   0.797E+00    0.212E-01
DAV:   2    -0.615265656865E+02   -0.10773E-02   -0.20826E-02   224   0.105E+00    0.761E-02
DAV:   3    -0.615267236714E+02   -0.15798E-03   -0.16512E-03   238   0.248E-01    0.623E-03
DAV:   4    -0.615267449866E+02   -0.21315E-04   -0.51686E-05   264   0.426E-02    0.593E-03
DAV:   5    -0.615267507555E+02   -0.57690E-05   -0.85111E-07   154   0.680E-03    0.998E-03
DAV:   6    -0.615267588066E+02   -0.80511E-05   -0.60614E-07   160   0.538E-03    0.122E-02
DAV:   7    -0.615267582798E+02    0.52684E-06   -0.21075E-07   160   0.358E-03
   24 T=   310. E= -.61786254E+02 F= -.62108909E+02 E0= -.62110290E+02  EK= 0.32089E+00 SP= 0.16E-02 SK= 0.18E-03
       N       E                     dE             d eps       ncg     rms          rms(c)
DAV:   1    -0.615293469492E+02   -0.25881E-02   -0.11458E+00   176   0.788E+00    0.205E-01
DAV:   2    -0.615304536586E+02   -0.11067E-02   -0.19380E-02   224   0.996E-01    0.863E-02
DAV:   3    -0.615306168737E+02   -0.16322E-03   -0.14201E-03   250   0.230E-01    0.206E-02
DAV:   4    -0.615306254598E+02   -0.85861E-05   -0.40880E-05   256   0.395E-02    0.944E-03
DAV:   5    -0.615306288882E+02   -0.34283E-05   -0.76263E-07   160   0.653E-03    0.121E-02
DAV:   6    -0.615306315195E+02   -0.26313E-05   -0.58406E-07   160   0.662E-03    0.383E-03
DAV:   7    -0.615306327240E+02   -0.12046E-05   -0.63366E-07   160   0.521E-03    0.146E-03
DAV:   8    -0.615306333853E+02   -0.66132E-06   -0.19786E-07   160   0.296E-03
   25 T=   314. E= -.61786173E+02 F= -.62113035E+02 E0= -.62114454E+02  EK= 0.32497E+00 SP= 0.17E-02 SK= 0.18E-03
       N       E                     dE             d eps       ncg     rms          rms(c)
DAV:   1    -0.615476718240E+02   -0.17039E-01   -0.11955E+00   176   0.802E+00    0.210E-01
DAV:   2    -0.615488539661E+02   -0.11821E-02   -0.19748E-02   240   0.981E-01    0.494E-02
DAV:   3    -0.615489758221E+02   -0.12186E-03   -0.11615E-03   234   0.212E-01    0.232E-02
DAV:   4    -0.615489803561E+02   -0.45341E-05   -0.40889E-05   272   0.400E-02    0.196E-02
DAV:   5    -0.615489789504E+02    0.14057E-05   -0.95462E-07   160   0.734E-03    0.125E-02
DAV:   6    -0.615489763522E+02    0.25982E-05   -0.13929E-06   160   0.815E-03    0.392E-03
DAV:   7    -0.615489775295E+02   -0.11773E-05   -0.46326E-07   160   0.493E-03    0.332E-03
DAV:   8    -0.615489797096E+02   -0.21801E-05   -0.13948E-07   160   0.259E-03    0.217E-03
DAV:   9    -0.615489821681E+02   -0.24585E-05   -0.82129E-08   160   0.190E-03    0.994E-04
DAV:  10    -0.615489833178E+02   -0.11497E-05   -0.69784E-08   160   0.142E-03    0.860E-04
DAV:  11    -0.615489835782E+02   -0.26042E-06   -0.37665E-08   160   0.115E-03
   26 T=   332. E= -.61786518E+02 F= -.62131393E+02 E0= -.62132841E+02  EK= 0.34284E+00 SP= 0.18E-02 SK= 0.20E-03
       N       E                     dE             d eps       ncg     rms          rms(c)
DAV:   1    -0.615744248122E+02   -0.25441E-01   -0.13040E+00   176   0.837E+00    0.215E-01
DAV:   2    -0.615757535465E+02   -0.13287E-02   -0.23046E-02   248   0.104E+00    0.279E-02
DAV:   3    -0.615758973637E+02   -0.14382E-03   -0.10514E-03   242   0.205E-01    0.113E-02
DAV:   4    -0.615759121709E+02   -0.14807E-04   -0.41371E-05   280   0.372E-02    0.752E-03
DAV:   5    -0.615759136085E+02   -0.14377E-05   -0.67714E-07   160   0.643E-03    0.458E-03
DAV:   6    -0.615759130078E+02    0.60070E-06   -0.36251E-07   160   0.383E-03
   27 T=   357. E= -.61787178E+02 F= -.62158135E+02 E0= -.62159605E+02  EK= 0.36877E+00 SP= 0.20E-02 SK= 0.22E-03
       N       E                     dE             d eps       ncg     rms          rms(c)
DAV:   1    -0.615987974045E+02   -0.22884E-01   -0.14329E+00   176   0.879E+00    0.226E-01
DAV:   2    -0.616002855633E+02   -0.14882E-02   -0.27183E-02   240   0.113E+00    0.556E-02
DAV:   3    -0.616004216061E+02   -0.13604E-03   -0.13674E-03   234   0.229E-01    0.996E-03
DAV:   4    -0.616004453219E+02   -0.23716E-04   -0.55539E-05   272   0.440E-02    0.574E-03
DAV:   5    -0.616004485141E+02   -0.31922E-05   -0.83050E-07   160   0.675E-03    0.588E-03
DAV:   6    -0.616004508267E+02   -0.23125E-05   -0.43471E-07   160   0.436E-03    0.482E-03
DAV:   7    -0.616004498927E+02    0.93398E-06   -0.15720E-07   160   0.291E-03
   28 T=   379. E= -.61787853E+02 F= -.62182353E+02 E0= -.62183836E+02  EK= 0.39214E+00 SP= 0.21E-02 SK= 0.25E-03
       N       E                     dE             d eps       ncg     rms          rms(c)
DAV:   1    -0.616095730714E+02   -0.91222E-02   -0.15277E+00   176   0.908E+00    0.236E-01
DAV:   2    -0.616110992072E+02   -0.15261E-02   -0.29915E-02   240   0.120E+00    0.568E-02
DAV:   3    -0.616112477177E+02   -0.14851E-03   -0.15870E-03   234   0.244E-01    0.167E-02
DAV:   4    -0.616112620073E+02   -0.14290E-04   -0.68128E-05   272   0.463E-02    0.991E-03
DAV:   5    -0.616112697667E+02   -0.77594E-05   -0.82686E-07   176   0.620E-03    0.119E-02
DAV:   6    -0.616112730103E+02   -0.32436E-05   -0.27599E-07   160   0.411E-03    0.118E-02
DAV:   7    -0.616112753022E+02   -0.22919E-05   -0.17240E-07   160   0.288E-03    0.112E-02
DAV:   8    -0.616112774786E+02   -0.21763E-05   -0.11202E-07   160   0.205E-03    0.987E-03
DAV:   9    -0.616112787725E+02   -0.12939E-05   -0.80122E-08   160   0.171E-03    0.818E-03
DAV:  10    -0.616112820176E+02   -0.32451E-05   -0.24850E-07   160   0.347E-03    0.467E-03
DAV:  11    -0.616112846613E+02   -0.26437E-05   -0.48396E-07   160   0.476E-03    0.988E-04
DAV:  12    -0.616112860868E+02   -0.14255E-05   -0.15002E-07   136   0.277E-03    0.129E-03
DAV:  13    -0.616112869673E+02   -0.88052E-06   -0.50754E-08   118   0.155E-03
   29 T=   389. E= -.61788219E+02 F= -.62192803E+02 E0= -.62194292E+02  EK= 0.40202E+00 SP= 0.23E-02 SK= 0.30E-03
       N       E                     dE             d eps       ncg     rms          rms(c)
DAV:   1    -0.616000770261E+02    0.11209E-01   -0.15433E+00   176   0.913E+00    0.241E-01
DAV:   2    -0.616015393565E+02   -0.14623E-02   -0.30185E-02   240   0.121E+00    0.474E-02
DAV:   3    -0.616017301297E+02   -0.19077E-03   -0.17224E-03   240   0.253E-01    0.411E-03
DAV:   4    -0.616017398122E+02   -0.96825E-05   -0.72785E-05   272   0.476E-02    0.427E-03
DAV:   5    -0.616017393181E+02    0.49406E-06   -0.73351E-07   176   0.566E-03
   30 T=   379. E= -.61788118E+02 F= -.62182855E+02 E0= -.62184346E+02  EK= 0.39196E+00 SP= 0.24E-02 SK= 0.35E-03
       N       E                     dE             d eps       ncg     rms          rms(c)
DAV:   1    -0.615707085517E+02    0.31031E-01   -0.14648E+00   176   0.888E+00    0.234E-01
DAV:   2    -0.615720233290E+02   -0.13148E-02   -0.27762E-02   232   0.117E+00    0.435E-02
DAV:   3    -0.615722343670E+02   -0.21104E-03   -0.18234E-03   248   0.257E-01    0.478E-03
DAV:   4    -0.615722447029E+02   -0.10336E-04   -0.67420E-05   264   0.466E-02    0.429E-03
DAV:   5    -0.615722456350E+02   -0.93215E-06   -0.91710E-07   176   0.620E-03
   31 T=   350. E= -.61787626E+02 F= -.62152996E+02 E0= -.62154487E+02  EK= 0.36237E+00 SP= 0.26E-02 SK= 0.39E-03
       N       E                     dE             d eps       ncg     rms          rms(c)
DAV:   1    -0.615282434599E+02    0.44001E-01   -0.13100E+00   176   0.838E+00    0.216E-01
DAV:   2    -0.615294416338E+02   -0.11982E-02   -0.23774E-02   232   0.108E+00    0.279E-02
DAV:   3    -0.615296177793E+02   -0.17615E-03   -0.15840E-03   248   0.241E-01    0.123E-02
DAV:   4    -0.615296250937E+02   -0.73143E-05   -0.58076E-05   264   0.434E-02    0.579E-03
DAV:   5    -0.615296254561E+02   -0.36243E-06   -0.83868E-07   176   0.620E-03
   32 T=   309. E= -.61786934E+02 F= -.62110083E+02 E0= -.62111577E+02  EK= 0.31994E+00 SP= 0.28E-02 SK= 0.41E-03
       N       E                     dE             d eps       ncg     rms          rms(c)
DAV:   1    -0.614830289070E+02    0.46596E-01   -0.11191E+00   176   0.771E+00    0.190E-01
DAV:   2    -0.614841120717E+02   -0.10832E-02   -0.19322E-02   232   0.976E-01    0.190E-02
DAV:   3    -0.614842459807E+02   -0.13391E-03   -0.12439E-03   248   0.215E-01    0.644E-03
DAV:   4    -0.614842534103E+02   -0.74296E-05   -0.47865E-05   264   0.396E-02    0.542E-03
DAV:   5    -0.614842536571E+02   -0.24676E-06   -0.58060E-07   168   0.498E-03
   33 T=   266. E= -.61786242E+02 F= -.62064526E+02 E0= -.62066029E+02  EK= 0.27489E+00 SP= 0.30E-02 SK= 0.40E-03
       N       E                     dE             d eps       ncg     rms          rms(c)
DAV:   1    -0.614455980570E+02    0.38655E-01   -0.93990E-01   176   0.703E+00    0.162E-01
DAV:   2    -0.614465652140E+02   -0.96716E-03   -0.15403E-02   224   0.873E-01    0.298E-02
DAV:   3    -0.614466857146E+02   -0.12050E-03   -0.10416E-03   256   0.196E-01    0.460E-03
DAV:   4    -0.614466911022E+02   -0.53876E-05   -0.37884E-05   256   0.361E-02    0.499E-03
DAV:   5    -0.614466931822E+02   -0.20800E-05   -0.74550E-07   176   0.601E-03    0.140E-03
DAV:   6    -0.614466972565E+02   -0.40743E-05   -0.36123E-07   160   0.421E-03    0.134E-03
DAV:   7    -0.614466988108E+02   -0.15543E-05   -0.12955E-07   160   0.237E-03    0.117E-03
DAV:   8    -0.614466991146E+02   -0.30388E-06   -0.39291E-08   160   0.132E-03
   34 T=   230. E= -.61785730E+02 F= -.62026929E+02 E0= -.62028448E+02  EK= 0.23765E+00 SP= 0.32E-02 SK= 0.37E-03
       N       E                     dE             d eps       ncg     rms          rms(c)
DAV:   1    -0.614239159981E+02    0.22783E-01   -0.81441E-01   176   0.652E+00    0.143E-01
DAV:   2    -0.614248401242E+02   -0.92413E-03   -0.12937E-02   224   0.797E-01    0.412E-02
DAV:   3    -0.614249111704E+02   -0.71046E-04   -0.85358E-04   244   0.177E-01    0.591E-03
DAV:   4    -0.614249208589E+02   -0.96885E-05   -0.28865E-05   256   0.313E-02    0.383E-03
DAV:   5    -0.614249266830E+02   -0.58241E-05   -0.47792E-07   160   0.459E-03    0.142E-03
DAV:   6    -0.614249332414E+02   -0.65585E-05   -0.24983E-07   160   0.326E-03    0.117E-03
DAV:   7    -0.614249340704E+02   -0.82897E-06   -0.11626E-07   160   0.238E-03
   35 T=   209. E= -.61785488E+02 F= -.62005297E+02 E0= -.62006839E+02  EK= 0.21614E+00 SP= 0.33E-02 SK= 0.32E-03
       N       E                     dE             d eps       ncg     rms          rms(c)
DAV:   1    -0.614217442747E+02    0.31890E-02   -0.76784E-01   176   0.632E+00    0.139E-01
DAV:   2    -0.614226511856E+02   -0.90691E-03   -0.12093E-02   224   0.772E-01    0.338E-02
DAV:   3    -0.614227338386E+02   -0.82653E-04   -0.78596E-04   244   0.170E-01    0.488E-03
DAV:   4    -0.614227491459E+02   -0.15307E-04   -0.28265E-05   256   0.307E-02    0.432E-03
DAV:   5    -0.614227508723E+02   -0.17264E-05   -0.40986E-07   160   0.459E-03    0.237E-03
DAV:   6    -0.614227515394E+02   -0.66711E-06   -0.15796E-07   160   0.264E-03
   36 T=   207. E= -.61785558E+02 F= -.62003458E+02 E0= -.62005024E+02  EK= 0.21412E+00 SP= 0.35E-02 SK= 0.27E-03
       N       E                     dE             d eps       ncg     rms          rms(c)
DAV:   1    -0.614381591279E+02   -0.15408E-01   -0.80643E-01   176   0.648E+00    0.153E-01
DAV:   2    -0.614391303676E+02   -0.97124E-03   -0.13202E-02   248   0.800E-01    0.266E-02
DAV:   3    -0.614392022483E+02   -0.71881E-04   -0.68105E-04   236   0.161E-01    0.931E-03
DAV:   4    -0.614392043993E+02   -0.21510E-05   -0.27545E-05   272   0.290E-02    0.582E-03
DAV:   5    -0.614392068025E+02   -0.24033E-05   -0.44206E-07   160   0.501E-03    0.448E-03
DAV:   6    -0.614392109660E+02   -0.41635E-05   -0.48465E-07   160   0.506E-03    0.362E-03
DAV:   7    -0.614392116809E+02   -0.71483E-06   -0.15929E-07   160   0.291E-03
   37 T=   223. E= -.61785901E+02 F= -.62020505E+02 E0= -.62022088E+02  EK= 0.23071E+00 SP= 0.37E-02 SK= 0.23E-03
       N       E                     dE             d eps       ncg     rms          rms(c)
DAV:   1    -0.614680045914E+02   -0.28794E-01   -0.91669E-01   176   0.691E+00    0.173E-01
DAV:   2    -0.614690468362E+02   -0.10422E-02   -0.15878E-02   240   0.875E-01    0.243E-02
DAV:   3    -0.614691639086E+02   -0.11707E-03   -0.89138E-04   236   0.183E-01    0.887E-03
DAV:   4    -0.614691686784E+02   -0.47698E-05   -0.35434E-05   264   0.341E-02    0.873E-03
DAV:   5    -0.614691713697E+02   -0.26913E-05   -0.49359E-07   160   0.490E-03    0.604E-03
DAV:   6    -0.614691734152E+02   -0.20456E-05   -0.57306E-07   160   0.400E-03    0.227E-03
DAV:   7    -0.614691746006E+02   -0.11853E-05   -0.11310E-07   160   0.221E-03    0.139E-03
DAV:   8    -0.614691748799E+02   -0.27932E-06   -0.45643E-08   160   0.142E-03
   38 T=   252. E= -.61786443E+02 F= -.62051323E+02 E0= -.62052906E+02  EK= 0.26088E+00 SP= 0.38E-02 SK= 0.20E-03
       N       E                     dE             d eps       ncg     rms          rms(c)
DAV:   1    -0.615031764805E+02   -0.34002E-01   -0.10692E+00   176   0.746E+00    0.191E-01
DAV:   2    -0.615044004189E+02   -0.12239E-02   -0.20053E-02   240   0.975E-01    0.274E-02
DAV:   3    -0.615045207092E+02   -0.12029E-03   -0.10945E-03   236   0.202E-01    0.817E-03
DAV:   4    -0.615045295396E+02   -0.88304E-05   -0.40731E-05   272   0.369E-02    0.518E-03
DAV:   5    -0.615045315356E+02   -0.19960E-05   -0.74771E-07   160   0.615E-03    0.209E-03
DAV:   6    -0.615045319369E+02   -0.40138E-06   -0.25882E-07   160   0.325E-03
   39 T=   287. E= -.61787066E+02 F= -.62087810E+02 E0= -.62089368E+02  EK= 0.29663E+00 SP= 0.39E-02 SK= 0.19E-03
       N       E                     dE             d eps       ncg     rms          rms(c)
DAV:   1    -0.615345525952E+02   -0.30021E-01   -0.12256E+00   176   0.798E+00    0.211E-01
DAV:   2    -0.615359022699E+02   -0.13497E-02   -0.24317E-02   240   0.107E+00    0.452E-02
DAV:   3    -0.615360385377E+02   -0.13627E-03   -0.12777E-03   234   0.218E-01    0.539E-03
DAV:   4    -0.615360484379E+02   -0.99001E-05   -0.49680E-05   264   0.408E-02    0.498E-03
DAV:   5    -0.615360517518E+02   -0.33139E-05   -0.12338E-06   176   0.684E-03    0.391E-03
DAV:   6    -0.615360535005E+02   -0.17487E-05   -0.23973E-07   160   0.328E-03    0.231E-03
DAV:   7    -0.615360545211E+02   -0.10206E-05   -0.86012E-08   160   0.218E-03    0.159E-03
DAV:   8    -0.615360560975E+02   -0.15764E-05   -0.87099E-08   160   0.200E-03    0.147E-03
DAV:   9    -0.615360572396E+02   -0.11421E-05   -0.45647E-08   160   0.144E-03    0.163E-03
DAV:  10    -0.615360578800E+02   -0.64040E-06   -0.15024E-08   160   0.863E-04
   40 T=   318. E= -.61787638E+02 F= -.62120712E+02 E0= -.62122222E+02  EK= 0.32882E+00 SP= 0.41E-02 SK= 0.19E-03
       N       E                     dE             d eps       ncg     rms          rms(c)
DAV:   1    -0.615540085639E+02   -0.17951E-01   -0.13455E+00   176   0.836E+00    0.229E-01
DAV:   2    -0.615553670377E+02   -0.13585E-02   -0.27281E-02   232   0.113E+00    0.479E-02
DAV:   3    -0.615555256843E+02   -0.15865E-03   -0.15678E-03   228   0.241E-01    0.943E-03
DAV:   4    -0.615555331669E+02   -0.74826E-05   -0.65912E-05   272   0.469E-02    0.912E-03
DAV:   5    -0.615555367567E+02   -0.35898E-05   -0.74804E-07   160   0.640E-03    0.526E-03
DAV:   6    -0.615555424457E+02   -0.56890E-05   -0.49904E-07   160   0.413E-03    0.230E-03
DAV:   7    -0.615555434295E+02   -0.98377E-06   -0.17669E-07   160   0.270E-03
   41 T=   338. E= -.61788030E+02 F= -.62141743E+02 E0= -.62143198E+02  EK= 0.34932E+00 SP= 0.42E-02 SK= 0.21E-03
       N       E                     dE             d eps       ncg     rms          rms(c)
DAV:   1    -0.615564982463E+02   -0.95580E-03   -0.13959E+00   176   0.852E+00    0.244E-01
DAV:   2    -0.615577165468E+02   -0.12183E-02   -0.28338E-02   232   0.116E+00    0.502E-02
DAV:   3    -0.615579035624E+02   -0.18702E-03   -0.16718E-03   234   0.249E-01    0.685E-03
DAV:   4    -0.615579139580E+02   -0.10396E-04   -0.71818E-05   272   0.485E-02    0.916E-03
DAV:   5    -0.615579191762E+02   -0.52182E-05   -0.79844E-07   160   0.677E-03    0.606E-03
DAV:   6    -0.615579233117E+02   -0.41354E-05   -0.56832E-07   160   0.492E-03    0.270E-03
DAV:   7    -0.615579238972E+02   -0.58550E-06   -0.21178E-07   160   0.357E-03
   42 T=   341. E= -.61788131E+02 F= -.62145719E+02 E0= -.62147128E+02  EK= 0.35303E+00 SP= 0.43E-02 SK= 0.23E-03
       N       E                     dE             d eps       ncg     rms          rms(c)
DAV:   1    -0.615416582319E+02    0.16265E-01   -0.13602E+00   188   0.842E+00    0.251E-01
DAV:   2    -0.615427021424E+02   -0.10439E-02   -0.27372E-02   234   0.114E+00    0.487E-02
DAV:   3    -0.615428655326E+02   -0.16339E-03   -0.15442E-03   226   0.243E-01    0.875E-03
DAV:   4    -0.615428724652E+02   -0.69326E-05   -0.68589E-05   274   0.477E-02    0.883E-03
DAV:   5    -0.615428767342E+02   -0.42690E-05   -0.81917E-07   160   0.705E-03    0.399E-03
DAV:   6    -0.615428789508E+02   -0.22165E-05   -0.47015E-07   160   0.507E-03    0.959E-04
DAV:   7    -0.615428803710E+02   -0.14202E-05   -0.22982E-07   160   0.350E-03    0.173E-03
DAV:   8    -0.615428808811E+02   -0.51015E-06   -0.67850E-08   160   0.176E-03
   43 T=   328. E= -.61787891E+02 F= -.62132181E+02 E0= -.62133564E+02  EK= 0.33957E+00 SP= 0.45E-02 SK= 0.25E-03
       N       E                     dE             d eps       ncg     rms          rms(c)
DAV:   1    -0.615144482592E+02    0.28432E-01   -0.12443E+00   176   0.809E+00    0.248E-01
DAV:   2    -0.615152279545E+02   -0.77970E-03   -0.23751E-02   240   0.107E+00    0.776E-02
DAV:   3    -0.615153860684E+02   -0.15811E-03   -0.14913E-03   228   0.237E-01    0.693E-03
DAV:   4    -0.615154023425E+02   -0.16274E-04   -0.55100E-05   272   0.438E-02    0.791E-03
DAV:   5    -0.615154044449E+02   -0.21024E-05   -0.12755E-06   160   0.861E-03    0.292E-03
DAV:   6    -0.615154038265E+02    0.61848E-06   -0.81944E-07   160   0.646E-03
   44 T=   303. E= -.61787341E+02 F= -.62105989E+02 E0= -.62107366E+02  EK= 0.31377E+00 SP= 0.46E-02 SK= 0.26E-03
       N       E                     dE             d eps       ncg     rms          rms(c)
DAV:   1    -0.614842148240E+02    0.31190E-01   -0.10797E+00   176   0.761E+00    0.228E-01
DAV:   2    -0.614848899280E+02   -0.67510E-03   -0.19419E-02   240   0.977E-01    0.599E-02
DAV:   3    -0.614850299665E+02   -0.14004E-03   -0.12442E-03   220   0.218E-01    0.861E-03
DAV:   4    -0.614850376636E+02   -0.76971E-05   -0.53389E-05   280   0.425E-02    0.487E-03
DAV:   5    -0.614850358782E+02    0.17853E-05   -0.69307E-07   160   0.623E-03    0.273E-03
DAV:   6    -0.614850391791E+02   -0.33009E-05   -0.27800E-07   160   0.385E-03    0.203E-03
DAV:   7    -0.614850404474E+02   -0.12683E-05   -0.14522E-07   160   0.344E-03    0.128E-03
DAV:   8    -0.614850414679E+02   -0.10205E-05   -0.13552E-07   160   0.250E-03    0.170E-03
DAV:   9    -0.614850420012E+02   -0.53334E-06   -0.39238E-08   160   0.152E-03
   45 T=   276. E= -.61786628E+02 F= -.62076603E+02 E0= -.62077984E+02  EK= 0.28495E+00 SP= 0.48E-02 SK= 0.26E-03
       N       E                     dE             d eps       ncg     rms          rms(c)
DAV:   1    -0.614627168832E+02    0.22325E-01   -0.91854E-01   176   0.712E+00    0.197E-01
DAV:   2    -0.614634061014E+02   -0.68922E-03   -0.15212E-02   232   0.872E-01    0.416E-02
DAV:   3    -0.614635454704E+02   -0.13937E-03   -0.11108E-03   228   0.205E-01    0.143E-02
DAV:   4    -0.614635602491E+02   -0.14779E-04   -0.44027E-05   280   0.408E-02    0.655E-03
DAV:   5    -0.614635604490E+02   -0.19988E-06   -0.33612E-06   210   0.119E-02
   46 T=   256. E= -.61785976E+02 F= -.62055742E+02 E0= -.62057129E+02  EK= 0.26461E+00 SP= 0.49E-02 SK= 0.24E-03
       N       E                     dE             d eps       ncg     rms          rms(c)
DAV:   1    -0.614603658410E+02    0.31944E-02   -0.82017E-01   176   0.681E+00    0.172E-01
DAV:   2    -0.614611519635E+02   -0.78612E-03   -0.11962E-02   224   0.775E-01    0.475E-02
DAV:   3    -0.614612382209E+02   -0.86257E-04   -0.85851E-04   256   0.182E-01    0.133E-02
DAV:   4    -0.614612476698E+02   -0.94489E-05   -0.34391E-05   256   0.344E-02    0.101E-02
DAV:   5    -0.614612521986E+02   -0.45287E-05   -0.11119E-06   160   0.837E-03    0.602E-03
DAV:   6    -0.614612559416E+02   -0.37431E-05   -0.37558E-07   160   0.439E-03    0.354E-03
DAV:   7    -0.614612582101E+02   -0.22685E-05   -0.13684E-07   160   0.255E-03    0.163E-03
DAV:   8    -0.614612603917E+02   -0.21816E-05   -0.86211E-08   160   0.193E-03    0.132E-03
DAV:   9    -0.614612614204E+02   -0.10288E-05   -0.57569E-08   160   0.131E-03    0.779E-04
DAV:  10    -0.614612614447E+02   -0.24207E-07   -0.37351E-08   160   0.120E-03
   47 T=   254. E= -.61785679E+02 F= -.62053699E+02 E0= -.62055090E+02  EK= 0.26275E+00 SP= 0.51E-02 SK= 0.22E-03
       N       E                     dE             d eps       ncg     rms          rms(c)
DAV:   1    -0.614817428371E+02   -0.20481E-01   -0.82758E-01   176   0.690E+00    0.168E-01
DAV:   2    -0.614826270672E+02   -0.88423E-03   -0.11186E-02   232   0.735E-01    0.445E-02
DAV:   3    -0.614826837981E+02   -0.56731E-04   -0.60396E-04   256   0.153E-01    0.127E-02
DAV:   4    -0.614826910081E+02   -0.72099E-05   -0.27749E-05   256   0.319E-02    0.113E-02
DAV:   5    -0.614826951214E+02   -0.41133E-05   -0.11266E-06   160   0.822E-03    0.621E-03
DAV:   6    -0.614826979531E+02   -0.28317E-05   -0.15187E-06   160   0.873E-03    0.573E-03
DAV:   7    -0.614826971210E+02    0.83217E-06   -0.41590E-07   160   0.461E-03
   48 T=   274. E= -.61785914E+02 F= -.62075053E+02 E0= -.62076446E+02  EK= 0.28375E+00 SP= 0.52E-02 SK= 0.20E-03
       N       E                     dE             d eps       ncg     rms          rms(c)
DAV:   1    -0.615228389449E+02   -0.40141E-01   -0.94795E-01   176   0.739E+00    0.184E-01
DAV:   2    -0.615238344263E+02   -0.99548E-03   -0.13851E-02   240   0.805E-01    0.233E-02
DAV:   3    -0.615238973599E+02   -0.62934E-04   -0.53710E-04   234   0.148E-01    0.795E-03
DAV:   4    -0.615239069250E+02   -0.95652E-05   -0.27542E-05   280   0.308E-02    0.517E-03
DAV:   5    -0.615239094247E+02   -0.24997E-05   -0.40285E-07   160   0.499E-03    0.406E-03
DAV:   6    -0.615239130005E+02   -0.35758E-05   -0.42188E-07   160   0.436E-03    0.249E-03
DAV:   7    -0.615239138621E+02   -0.86160E-06   -0.11430E-07   160   0.224E-03
   49 T=   313. E= -.61786646E+02 F= -.62115904E+02 E0= -.62117295E+02  EK= 0.32373E+00 SP= 0.53E-02 SK= 0.20E-03
       N       E                     dE             d eps       ncg     rms          rms(c)
DAV:   1    -0.615719142833E+02   -0.48001E-01   -0.11458E+00   176   0.810E+00    0.211E-01
DAV:   2    -0.615730380518E+02   -0.11238E-02   -0.18801E-02   248   0.941E-01    0.256E-02
DAV:   3    -0.615731183691E+02   -0.80317E-04   -0.73374E-04   232   0.172E-01    0.109E-02
DAV:   4    -0.615731191515E+02   -0.78242E-06   -0.36410E-05   280   0.345E-02    0.867E-03
DAV:   5    -0.615731233137E+02   -0.41621E-05   -0.82554E-07   160   0.763E-03    0.441E-03
DAV:   6    -0.615731261667E+02   -0.28531E-05   -0.50130E-07   160   0.514E-03    0.219E-03
DAV:   7    -0.615731277125E+02   -0.15458E-05   -0.13469E-07   160   0.283E-03    0.120E-03
DAV:   8    -0.615731295286E+02   -0.18161E-05   -0.10407E-07   160   0.192E-03    0.787E-04
DAV:   9    -0.615731312336E+02   -0.17050E-05   -0.26319E-08   160   0.116E-03    0.456E-04
DAV:  10    -0.615731327485E+02   -0.15149E-05   -0.28340E-08   160   0.104E-03    0.320E-04
DAV:  11    -0.615731331927E+02   -0.44424E-06   -0.88629E-09   142   0.596E-04
   50 T=   359. E= -.61787588E+02 F= -.62164546E+02 E0= -.62165934E+02  EK= 0.37128E+00 SP= 0.55E-02 SK= 0.22E-03
       N       E                     dE             d eps       ncg     rms          rms(c)
DAV:   1    -0.616139487440E+02   -0.40816E-01   -0.13558E+00   176   0.876E+00    0.238E-01
DAV:   2    -0.616151166140E+02   -0.11679E-02   -0.23828E-02   240   0.107E+00    0.335E-02
DAV:   3    -0.616152346977E+02   -0.11808E-03   -0.11491E-03   240   0.212E-01    0.406E-03
DAV:   4    -0.616152437892E+02   -0.90914E-05   -0.50637E-05   272   0.406E-02    0.536E-03
DAV:   5    -0.616152497212E+02   -0.59320E-05   -0.64476E-07   160   0.617E-03    0.367E-03
DAV:   6    -0.616152533312E+02   -0.36100E-05   -0.26487E-07   160   0.406E-03    0.185E-03
DAV:   7    -0.616152547282E+02   -0.13971E-05   -0.12714E-07   160   0.254E-03    0.117E-03
DAV:   8    -0.616152555831E+02   -0.85483E-06   -0.53781E-08   160   0.164E-03
   51 T=   398. E= -.61788332E+02 F= -.62205964E+02 E0= -.62207350E+02  EK= 0.41177E+00 SP= 0.56E-02 SK= 0.26E-03
       N       E                     dE             d eps       ncg     rms          rms(c)
DAV:   1    -0.616366514802E+02   -0.21397E-01   -0.15101E+00   176   0.919E+00    0.256E-01
DAV:   2    -0.616377966580E+02   -0.11452E-02   -0.27009E-02   232   0.115E+00    0.435E-02
DAV:   3    -0.616379724554E+02   -0.17580E-03   -0.16082E-03   242   0.243E-01    0.543E-03
DAV:   4    -0.616379852056E+02   -0.12750E-04   -0.60086E-05   264   0.447E-02    0.440E-03
DAV:   5    -0.616379880423E+02   -0.28367E-05   -0.98751E-07   160   0.676E-03    0.167E-03
DAV:   6    -0.616379876604E+02    0.38189E-06   -0.27172E-07   160   0.337E-03
   52 T=   419. E= -.61788598E+02 F= -.62227951E+02 E0= -.62229334E+02  EK= 0.43328E+00 SP= 0.58E-02 SK= 0.32E-03
       N       E                     dE             d eps       ncg     rms          rms(c)
DAV:   1    -0.616349058733E+02    0.30822E-02   -0.15657E+00   176   0.931E+00    0.261E-01
DAV:   2    -0.616360398787E+02   -0.11340E-02   -0.27768E-02   232   0.117E+00    0.372E-02
DAV:   3    -0.616362343884E+02   -0.19451E-03   -0.17501E-03   242   0.253E-01    0.675E-03
DAV:   4    -0.616362414552E+02   -0.70668E-05   -0.62860E-05   264   0.456E-02    0.445E-03
DAV:   5    -0.616362414221E+02    0.33116E-07   -0.87219E-07   168   0.665E-03
   53 T=   417. E= -.61788348E+02 F= -.62225492E+02 E0= -.62226873E+02  EK= 0.43082E+00 SP= 0.59E-02 SK= 0.39E-03
       N       E                     dE             d eps       ncg     rms          rms(c)
DAV:   1    -0.616116940145E+02    0.24547E-01   -0.15179E+00   176   0.913E+00    0.253E-01
DAV:   2    -0.616128078062E+02   -0.11138E-02   -0.26354E-02   232   0.114E+00    0.252E-02
DAV:   3    -0.616129842719E+02   -0.17647E-03   -0.16382E-03   242   0.246E-01    0.370E-03
DAV:   4    -0.616129980794E+02   -0.13807E-04   -0.61803E-05   264   0.448E-02    0.356E-03
DAV:   5    -0.616129994623E+02   -0.13829E-05   -0.87859E-07   176   0.646E-03    0.107E-03
DAV:   6    -0.616130012044E+02   -0.17421E-05   -0.28720E-07   160   0.345E-03    0.163E-03
DAV:   7    -0.616130016844E+02   -0.47999E-06   -0.85346E-08   160   0.216E-03
   54 T=   394. E= -.61787734E+02 F= -.62201633E+02 E0= -.62203013E+02  EK= 0.40731E+00 SP= 0.61E-02 SK= 0.46E-03
       N       E                     dE             d eps       ncg     rms          rms(c)
DAV:   1    -0.615757890973E+02    0.37212E-01   -0.13946E+00   176   0.871E+00    0.234E-01
DAV:   2    -0.615768587681E+02   -0.10697E-02   -0.23490E-02   224   0.108E+00    0.258E-02
DAV:   3    -0.615770260462E+02   -0.16728E-03   -0.15847E-03   250   0.239E-01    0.467E-03
DAV:   4    -0.615770361104E+02   -0.10064E-04   -0.54261E-05   256   0.434E-02    0.293E-03
DAV:   5    -0.615770401776E+02   -0.40672E-05   -0.88981E-07   176   0.661E-03    0.184E-03
DAV:   6    -0.615770451518E+02   -0.49742E-05   -0.32659E-07   160   0.414E-03    0.264E-03
DAV:   7    -0.615770467689E+02   -0.16171E-05   -0.10456E-07   160   0.233E-03    0.167E-03
DAV:   8    -0.615770477530E+02   -0.98413E-06   -0.65251E-08   160   0.166E-03
   55 T=   359. E= -.61786991E+02 F= -.62165196E+02 E0= -.62166576E+02  EK= 0.37135E+00 SP= 0.63E-02 SK= 0.52E-03
       N       E                     dE             d eps       ncg     rms          rms(c)
DAV:   1    -0.615380654336E+02    0.38981E-01   -0.12413E+00   176   0.819E+00    0.209E-01
DAV:   2    -0.615391194667E+02   -0.10540E-02   -0.20640E-02   232   0.100E+00    0.305E-02
DAV:   3    -0.615392637899E+02   -0.14432E-03   -0.12163E-03   248   0.212E-01    0.455E-03
DAV:   4    -0.615392704773E+02   -0.66874E-05   -0.44557E-05   264   0.388E-02    0.357E-03
DAV:   5    -0.615392711156E+02   -0.63824E-06   -0.49800E-07   160   0.484E-03
   56 T=   323. E= -.61786357E+02 F= -.62127100E+02 E0= -.62128481E+02  EK= 0.33365E+00 SP= 0.65E-02 SK= 0.55E-03
       N       E                     dE             d eps       ncg     rms          rms(c)
DAV:   1    -0.615080499736E+02    0.31221E-01   -0.11038E+00   176   0.772E+00    0.187E-01
DAV:   2    -0.615090894924E+02   -0.10395E-02   -0.18135E-02   240   0.939E-01    0.299E-02
DAV:   3    -0.615091959494E+02   -0.10646E-03   -0.94789E-04   234   0.188E-01    0.604E-03
DAV:   4    -0.615092008768E+02   -0.49273E-05   -0.38786E-05   272   0.362E-02    0.397E-03
DAV:   5    -0.615091996666E+02    0.12102E-05   -0.47716E-07   160   0.479E-03    0.200E-03
DAV:   6    -0.615091999588E+02   -0.29225E-06   -0.18954E-07   160   0.290E-03
   57 T=   294. E= -.61785974E+02 F= -.62096889E+02 E0= -.62098275E+02  EK= 0.30359E+00 SP= 0.68E-02 SK= 0.55E-03
       N       E                     dE             d eps       ncg     rms          rms(c)
DAV:   1    -0.614916228994E+02    0.17577E-01   -0.10157E+00   176   0.741E+00    0.175E-01
DAV:   2    -0.614926187883E+02   -0.99589E-03   -0.16688E-02   248   0.897E-01    0.253E-02
DAV:   3    -0.614927218005E+02   -0.10301E-03   -0.75481E-04   226   0.171E-01    0.751E-03
DAV:   4    -0.614927304422E+02   -0.86418E-05   -0.35371E-05   280   0.339E-02    0.476E-03
DAV:   5    -0.614927318294E+02   -0.13872E-05   -0.38823E-07   160   0.433E-03    0.266E-03
DAV:   6    -0.614927317867E+02    0.42717E-07   -0.19693E-07   160   0.301E-03
   58 T=   278. E= -.61785890E+02 F= -.62080471E+02 E0= -.62081866E+02  EK= 0.28705E+00 SP= 0.70E-02 SK= 0.54E-03
       N       E                     dE             d eps       ncg     rms          rms(c)
DAV:   1    -0.614901404940E+02    0.25913E-02   -0.99198E-01   176   0.732E+00    0.175E-01
DAV:   2    -0.614911337382E+02   -0.99324E-03   -0.16524E-02   248   0.890E-01    0.311E-02
DAV:   3    -0.614912250996E+02   -0.91361E-04   -0.76276E-04   226   0.172E-01    0.600E-03
DAV:   4    -0.614912287098E+02   -0.36102E-05   -0.34145E-05   280   0.331E-02    0.256E-03
DAV:   5    -0.614912292853E+02   -0.57551E-06   -0.33623E-07   160   0.403E-03
   59 T=   276. E= -.61786072E+02 F= -.62079208E+02 E0= -.62080624E+02  EK= 0.28541E+00 SP= 0.72E-02 SK= 0.53E-03
       N       E                     dE             d eps       ncg     rms          rms(c)
DAV:   1    -0.615007673479E+02   -0.95386E-02   -0.10293E+00   176   0.743E+00    0.184E-01
DAV:   2    -0.615017782871E+02   -0.10109E-02   -0.17692E-02   256   0.919E-01    0.329E-02
DAV:   3    -0.615018586792E+02   -0.80392E-04   -0.77201E-04   226   0.175E-01    0.495E-03
DAV:   4    -0.615018638961E+02   -0.52169E-05   -0.39687E-05   288   0.343E-02    0.306E-03
DAV:   5    -0.615018680199E+02   -0.41238E-05   -0.54562E-07   160   0.590E-03    0.171E-03
DAV:   6    -0.615018737561E+02   -0.57361E-05   -0.18332E-07   160   0.337E-03    0.175E-03
DAV:   7    -0.615018755340E+02   -0.17779E-05   -0.60832E-08   160   0.180E-03    0.132E-03
DAV:   8    -0.615018770072E+02   -0.14732E-05   -0.31178E-08   160   0.128E-03    0.732E-04
DAV:   9    -0.615018783397E+02   -0.13325E-05   -0.29470E-08   142   0.109E-03    0.832E-04
DAV:  10    -0.615018788239E+02   -0.48422E-06   -0.14914E-08   142   0.733E-04
   60 T=   286. E= -.61786462E+02 F= -.62090288E+02 E0= -.62091733E+02  EK= 0.29590E+00 SP= 0.74E-02 SK= 0.51E-03
       N       E                     dE             d eps       ncg     rms          rms(c)
DAV:   1    -0.615176779525E+02   -0.15800E-01   -0.11087E+00   176   0.769E+00    0.198E-01
DAV:   2    -0.615186889041E+02   -0.10110E-02   -0.19673E-02   256   0.971E-01    0.392E-02
DAV:   3    -0.615187923651E+02   -0.10346E-03   -0.92674E-04   218   0.190E-01    0.776E-03
DAV:   4    -0.615188005549E+02   -0.81898E-05   -0.44612E-05   288   0.369E-02    0.587E-03
DAV:   5    -0.615188044323E+02   -0.38774E-05   -0.53886E-07   160   0.568E-03    0.301E-03
DAV:   6    -0.615188072364E+02   -0.28042E-05   -0.25758E-07   160   0.357E-03    0.152E-03
DAV:   7    -0.615188081276E+02   -0.89117E-06   -0.12017E-07   160   0.247E-03
   61 T=   302. E= -.61786936E+02 F= -.62107830E+02 E0= -.62109310E+02  EK= 0.31276E+00 SP= 0.76E-02 SK= 0.51E-03
       N       E                     dE             d eps       ncg     rms          rms(c)
DAV:   1    -0.615336956370E+02   -0.14888E-01   -0.12020E+00   176   0.798E+00    0.212E-01
DAV:   2    -0.615347415644E+02   -0.10459E-02   -0.22213E-02   248   0.103E+00    0.446E-02
DAV:   3    -0.615348701909E+02   -0.12863E-03   -0.11829E-03   226   0.211E-01    0.550E-03
DAV:   4    -0.615348780395E+02   -0.78487E-05   -0.47559E-05   280   0.385E-02    0.655E-03
DAV:   5    -0.615348785030E+02   -0.46342E-06   -0.51886E-07   160   0.512E-03
   62 T=   318. E= -.61787385E+02 F= -.62124683E+02 E0= -.62126194E+02  EK= 0.32894E+00 SP= 0.78E-02 SK= 0.52E-03
       N       E                     dE             d eps       ncg     rms          rms(c)
DAV:   1    -0.615423870665E+02   -0.75090E-02   -0.12793E+00   176   0.822E+00    0.223E-01
DAV:   2    -0.615434668644E+02   -0.10798E-02   -0.24615E-02   248   0.109E+00    0.389E-02
DAV:   3    -0.615436126813E+02   -0.14582E-03   -0.13102E-03   226   0.221E-01    0.196E-02
DAV:   4    -0.615436191843E+02   -0.65031E-05   -0.52506E-05   280   0.407E-02    0.171E-02
DAV:   5    -0.615436171541E+02    0.20302E-05   -0.63462E-07   160   0.570E-03    0.131E-02
DAV:   6    -0.615436162516E+02    0.90259E-06   -0.48508E-07   160   0.499E-03
   63 T=   327. E= -.61787707E+02 F= -.62134351E+02 E0= -.62135881E+02  EK= 0.33805E+00 SP= 0.81E-02 SK= 0.54E-03
       N       E                     dE             d eps       ncg     rms          rms(c)
DAV:   1    -0.615396993115E+02    0.39178E-02   -0.13172E+00   176   0.832E+00    0.233E-01
DAV:   2    -0.615407332674E+02   -0.10340E-02   -0.25940E-02   248   0.112E+00    0.477E-02
DAV:   3    -0.615408850490E+02   -0.15178E-03   -0.13594E-03   226   0.225E-01    0.109E-02
DAV:   4    -0.615408952056E+02   -0.10157E-04   -0.56138E-05   280   0.417E-02    0.966E-03
DAV:   5    -0.615408948080E+02    0.39753E-06   -0.67078E-07   154   0.625E-03
   64 T=   325. E= -.61787825E+02 F= -.62132672E+02 E0= -.62134204E+02  EK= 0.33601E+00 SP= 0.83E-02 SK= 0.56E-03
       N       E                     dE             d eps       ncg     rms          rms(c)
DAV:   1    -0.615248279921E+02    0.16067E-01   -0.13039E+00   176   0.827E+00    0.239E-01
DAV:   2    -0.615257440549E+02   -0.91606E-03   -0.25868E-02   248   0.112E+00    0.699E-02
DAV:   3    -0.615258766478E+02   -0.13259E-03   -0.13732E-03   226   0.226E-01    0.925E-03
DAV:   4    -0.615258898867E+02   -0.13239E-04   -0.59248E-05   280   0.428E-02    0.356E-03
DAV:   5    -0.615258896565E+02    0.23021E-06   -0.51555E-07   154   0.531E-03
   65 T=   311. E= -.61787717E+02 F= -.62118766E+02 E0= -.62120280E+02  EK= 0.32198E+00 SP= 0.85E-02 SK= 0.58E-03
       N       E                     dE             d eps       ncg     rms          rms(c)
DAV:   1    -0.615001390193E+02    0.25751E-01   -0.12407E+00   176   0.806E+00    0.242E-01
DAV:   2    -0.615008935500E+02   -0.75453E-03   -0.24560E-02   248   0.109E+00    0.667E-02
DAV:   3    -0.615010074052E+02   -0.11386E-03   -0.13444E-03   218   0.224E-01    0.558E-03
DAV:   4    -0.615010293064E+02   -0.21901E-04   -0.66623E-05   288   0.462E-02    0.414E-03
DAV:   5    -0.615010443448E+02   -0.15038E-04   -0.11102E-06   160   0.749E-03    0.462E-03
DAV:   6    -0.615010569383E+02   -0.12594E-04   -0.87655E-07   160   0.571E-03    0.829E-03
DAV:   7    -0.615010607917E+02   -0.38534E-05   -0.28495E-07   160   0.428E-03    0.417E-03
DAV:   8    -0.615010647663E+02   -0.39746E-05   -0.65539E-07   160   0.507E-03    0.993E-04
DAV:   9    -0.615010681484E+02   -0.33821E-05   -0.16675E-07   160   0.265E-03    0.130E-03
DAV:  10    -0.615010701060E+02   -0.19576E-05   -0.10340E-07   160   0.141E-03    0.989E-04
DAV:  11    -0.615010707387E+02   -0.63263E-06   -0.38896E-08   142   0.897E-04
   66 T=   288. E= -.61787463E+02 F= -.62095035E+02 E0= -.62096505E+02  EK= 0.29827E+00 SP= 0.87E-02 SK= 0.58E-03
       N       E                     dE             d eps       ncg     rms          rms(c)
DAV:   1    -0.614704527096E+02    0.30617E-01   -0.11425E+00   176   0.774E+00    0.241E-01
DAV:   2    -0.614711000972E+02   -0.64739E-03   -0.22470E-02   248   0.105E+00    0.522E-02
DAV:   3    -0.614712546510E+02   -0.15455E-03   -0.13268E-03   232   0.222E-01    0.121E-02
DAV:   4    -0.614712628056E+02   -0.81545E-05   -0.54375E-05   280   0.417E-02    0.104E-02
DAV:   5    -0.614712694451E+02   -0.66395E-05   -0.79830E-07   160   0.685E-03    0.315E-03
DAV:   6    -0.614712759462E+02   -0.65011E-05   -0.75236E-07   160   0.611E-03    0.316E-03
DAV:   7    -0.614712790906E+02   -0.31444E-05   -0.19849E-07   160   0.318E-03    0.896E-04
DAV:   8    -0.614712823452E+02   -0.32547E-05   -0.95888E-08   160   0.184E-03    0.933E-04
DAV:   9    -0.614712840022E+02   -0.16569E-05   -0.29552E-08   160   0.105E-03    0.915E-04
DAV:  10    -0.614712842740E+02   -0.27177E-06   -0.10956E-08   142   0.712E-04
   67 T=   261. E= -.61787134E+02 F= -.62066249E+02 E0= -.62067643E+02  EK= 0.26961E+00 SP= 0.89E-02 SK= 0.56E-03
       N       E                     dE             d eps       ncg     rms          rms(c)
DAV:   1    -0.614418094675E+02    0.29475E-01   -0.10313E+00   176   0.736E+00    0.231E-01
DAV:   2    -0.614424227666E+02   -0.61330E-03   -0.20319E-02   248   0.101E+00    0.235E-02
DAV:   3    -0.614425579785E+02   -0.13521E-03   -0.12397E-03   232   0.214E-01    0.171E-02
DAV:   4    -0.614425670574E+02   -0.90789E-05   -0.47953E-05   280   0.396E-02    0.844E-03
DAV:   5    -0.614425679936E+02   -0.93625E-06   -0.99885E-07   160   0.716E-03
   68 T=   234. E= -.61786811E+02 F= -.62038369E+02 E0= -.62039633E+02  EK= 0.24187E+00 SP= 0.92E-02 SK= 0.53E-03
       N       E                     dE             d eps       ncg     rms          rms(c)
DAV:   1    -0.614200999748E+02    0.22467E-01   -0.93209E-01   176   0.701E+00    0.216E-01
DAV:   2    -0.614206801297E+02   -0.58015E-03   -0.18553E-02   240   0.983E-01    0.350E-02
DAV:   3    -0.614208345703E+02   -0.15444E-03   -0.11940E-03   228   0.210E-01    0.156E-02
DAV:   4    -0.614208384717E+02   -0.39014E-05   -0.46579E-05   272   0.376E-02    0.113E-02
DAV:   5    -0.614208396886E+02   -0.12170E-05   -0.57121E-07   160   0.577E-03    0.857E-03
DAV:   6    -0.614208400021E+02   -0.31346E-06   -0.73283E-07   160   0.578E-03
   69 T=   214. E= -.61786563E+02 F= -.62017254E+02 E0= -.62018433E+02  EK= 0.22084E+00 SP= 0.94E-02 SK= 0.47E-03
       N       E                     dE             d eps       ncg     rms          rms(c)
DAV:   1    -0.614098664833E+02    0.10973E-01   -0.86771E-01   176   0.679E+00    0.204E-01
DAV:   2    -0.614105063606E+02   -0.63988E-03   -0.17764E-02   232   0.965E-01    0.403E-02
DAV:   3    -0.614106435826E+02   -0.13722E-03   -0.12468E-03   236   0.212E-01    0.511E-02
DAV:   4    -0.614106600027E+02   -0.16420E-04   -0.42210E-05   256   0.397E-02    0.292E-02
DAV:   5    -0.614106567182E+02    0.32846E-05   -0.16246E-05   256   0.243E-02    0.658E-03
DAV:   6    -0.614106620994E+02   -0.53812E-05   -0.41965E-06   224   0.124E-02    0.353E-03
DAV:   7    -0.614106656774E+02   -0.35780E-05   -0.43324E-07   160   0.505E-03    0.197E-03
DAV:   8    -0.614106673380E+02   -0.16606E-05   -0.12339E-07   160   0.239E-03    0.164E-03
DAV:   9    -0.614106681506E+02   -0.81260E-06   -0.48179E-08   142   0.155E-03
   70 T=   204. E= -.61786430E+02 F= -.62007436E+02 E0= -.62008818E+02  EK= 0.21102E+00 SP= 0.96E-02 SK= 0.42E-03
       N       E                     dE             d eps       ncg     rms          rms(c)
DAV:   1    -0.614137995786E+02   -0.31322E-02   -0.85455E-01   176   0.675E+00    0.199E-01
DAV:   2    -0.614145093919E+02   -0.70981E-03   -0.17817E-02   240   0.956E-01    0.363E-02
DAV:   3    -0.614146290857E+02   -0.11969E-03   -0.10538E-03   220   0.201E-01    0.195E-02
DAV:   4    -0.614146114983E+02    0.17587E-04   -0.42138E-05   280   0.381E-02    0.153E-02
DAV:   5    -0.614146226413E+02   -0.11143E-04   -0.11653E-06   154   0.840E-03    0.150E-02
DAV:   6    -0.614146196238E+02    0.30175E-05   -0.12818E-06   160   0.894E-03    0.304E-03
DAV:   7    -0.614146234874E+02   -0.38636E-05   -0.11208E-06   160   0.692E-03    0.310E-03
DAV:   8    -0.614146322650E+02   -0.87776E-05   -0.36754E-07   160   0.338E-03    0.102E-03
DAV:   9    -0.614146395247E+02   -0.72597E-05   -0.14902E-07   160   0.270E-03    0.808E-04
DAV:  10    -0.614146413321E+02   -0.18075E-05   -0.49333E-08   154   0.144E-03    0.445E-04
DAV:  11    -0.614146421878E+02   -0.85570E-06   -0.18721E-08   142   0.853E-04
   71 T=   208. E= -.61786410E+02 F= -.62011498E+02 E0= -.62013270E+02  EK= 0.21498E+00 SP= 0.98E-02 SK= 0.36E-03
       N       E                     dE             d eps       ncg     rms          rms(c)
DAV:   1    -0.614323785933E+02   -0.17737E-01   -0.90130E-01   176   0.692E+00    0.208E-01
DAV:   2    -0.614329659353E+02   -0.58734E-03   -0.18536E-02   240   0.975E-01    0.837E-02
DAV:   3    -0.614330780468E+02   -0.11211E-03   -0.10967E-03   228   0.208E-01    0.278E-02
DAV:   4    -0.614330977513E+02   -0.19705E-04   -0.40878E-05   272   0.382E-02    0.151E-02
DAV:   5    -0.614330958180E+02    0.19333E-05   -0.21716E-06   160   0.110E-02    0.850E-03
DAV:   6    -0.614331140107E+02   -0.18193E-04   -0.21451E-06   184   0.966E-03    0.159E-03
DAV:   7    -0.614331170742E+02   -0.30635E-05   -0.32607E-07   160   0.401E-03    0.107E-03
DAV:   8    -0.614331213796E+02   -0.43054E-05   -0.13083E-07   160   0.245E-03    0.651E-04
DAV:   9    -0.614331235873E+02   -0.22077E-05   -0.41441E-08   142   0.146E-03    0.476E-04
DAV:  10    -0.614331249364E+02   -0.13491E-05   -0.24216E-08   160   0.100E-03    0.434E-04
DAV:  11    -0.614331253042E+02   -0.36781E-06   -0.86780E-09   142   0.671E-04
   72 T=   225. E= -.61786581E+02 F= -.62029821E+02 E0= -.62031759E+02  EK= 0.23301E+00 SP= 0.99E-02 SK= 0.31E-03
       N       E                     dE             d eps       ncg     rms          rms(c)
DAV:   1    -0.614625816236E+02   -0.29457E-01   -0.10022E+00   176   0.728E+00    0.226E-01
DAV:   2    -0.614629670094E+02   -0.38539E-03   -0.19879E-02   232   0.104E+00    0.583E-02
DAV:   3    -0.614631555265E+02   -0.18852E-03   -0.14717E-03   236   0.236E-01    0.127E-02
DAV:   4    -0.614631622850E+02   -0.67584E-05   -0.48379E-05   272   0.421E-02    0.439E-03
DAV:   5    -0.614631691086E+02   -0.68236E-05   -0.12513E-06   160   0.876E-03    0.210E-03
DAV:   6    -0.614631688824E+02    0.22614E-06   -0.41524E-07   160   0.412E-03
   73 T=   254. E= -.61786970E+02 F= -.62059498E+02 E0= -.62061193E+02  EK= 0.26217E+00 SP= 0.10E-01 SK= 0.28E-03
       N       E                     dE             d eps       ncg     rms          rms(c)
DAV:   1    -0.614978247385E+02   -0.34656E-01   -0.11336E+00   176   0.776E+00    0.245E-01
DAV:   2    -0.614981394497E+02   -0.31471E-03   -0.22822E-02   232   0.112E+00    0.553E-02
DAV:   3    -0.614983429863E+02   -0.20354E-03   -0.17043E-03   236   0.256E-01    0.117E-02
DAV:   4    -0.614983520057E+02   -0.90194E-05   -0.60863E-05   272   0.456E-02    0.404E-03
DAV:   5    -0.614983532368E+02   -0.12310E-05   -0.76818E-07   154   0.659E-03    0.324E-03
DAV:   6    -0.614983572546E+02   -0.40178E-05   -0.43379E-07   160   0.435E-03    0.177E-03
DAV:   7    -0.614983573720E+02   -0.11740E-06   -0.13437E-07   160   0.246E-03
   74 T=   286. E= -.61787445E+02 F= -.62094172E+02 E0= -.62095356E+02  EK= 0.29623E+00 SP= 0.10E-01 SK= 0.27E-03
       N       E                     dE             d eps       ncg     rms          rms(c)
DAV:   1    -0.615303355092E+02   -0.31978E-01   -0.12614E+00   176   0.821E+00    0.261E-01
DAV:   2    -0.615306675694E+02   -0.33206E-03   -0.25430E-02   224   0.118E+00    0.529E-02
DAV:   3    -0.615308780106E+02   -0.21044E-03   -0.20265E-03   244   0.275E-01    0.711E-03
DAV:   4    -0.615308968552E+02   -0.18845E-04   -0.62980E-05   256   0.466E-02    0.101E-02
DAV:   5    -0.615308977926E+02   -0.93744E-06   -0.15590E-06   162   0.827E-03
   75 T=   317. E= -.61787810E+02 F= -.62126113E+02 E0= -.62126886E+02  EK= 0.32765E+00 SP= 0.10E-01 SK= 0.27E-03
       N       E                     dE             d eps       ncg     rms          rms(c)
DAV:   1    -0.615540285637E+02   -0.23132E-01   -0.13532E+00   176   0.853E+00    0.270E-01
DAV:   2    -0.615543971856E+02   -0.36862E-03   -0.26674E-02   224   0.121E+00    0.531E-02
DAV:   3    -0.615546500157E+02   -0.25283E-03   -0.21449E-03   244   0.281E-01    0.109E-02
DAV:   4    -0.615546653257E+02   -0.15310E-04   -0.72311E-05   256   0.486E-02    0.142E-02
DAV:   5    -0.615546626819E+02    0.26439E-05   -0.10900E-06   154   0.762E-03    0.104E-02
DAV:   6    -0.615546632466E+02   -0.56471E-06   -0.69046E-07   160   0.603E-03
   76 T=   339. E= -.61787950E+02 F= -.62149252E+02 E0= -.62149828E+02  EK= 0.35047E+00 SP= 0.11E-01 SK= 0.29E-03
       N       E                     dE             d eps       ncg     rms          rms(c)
DAV:   1    -0.615664443916E+02   -0.11782E-01   -0.13910E+00   176   0.866E+00    0.270E-01
DAV:   2    -0.615669073717E+02   -0.46298E-03   -0.26110E-02   224   0.119E+00    0.766E-02
DAV:   3    -0.615671142344E+02   -0.20686E-03   -0.20087E-03   250   0.272E-01    0.163E-02
DAV:   4    -0.615671223847E+02   -0.81503E-05   -0.67103E-05   256   0.466E-02    0.848E-03
DAV:   5    -0.615671235253E+02   -0.11406E-05   -0.12292E-06   178   0.706E-03    0.774E-03
DAV:   6    -0.615671221438E+02    0.13814E-05   -0.26271E-07   160   0.338E-03    0.722E-03
DAV:   7    -0.615671259731E+02   -0.38293E-05   -0.31774E-07   160   0.406E-03    0.337E-03
DAV:   8    -0.615671297064E+02   -0.37333E-05   -0.30885E-07   160   0.374E-03    0.128E-03
DAV:   9    -0.615671304326E+02   -0.72614E-06   -0.11784E-07   148   0.222E-03
   77 T=   350. E= -.61787831E+02 F= -.62161118E+02 E0= -.62161606E+02  EK= 0.36227E+00 SP= 0.11E-01 SK= 0.31E-03
       N       E                     dE             d eps       ncg     rms          rms(c)
DAV:   1    -0.615689155427E+02   -0.17858E-02   -0.13755E+00   176   0.861E+00    0.259E-01
DAV:   2    -0.615694310823E+02   -0.51554E-03   -0.24066E-02   224   0.113E+00    0.535E-02
DAV:   3    -0.615696076848E+02   -0.17660E-03   -0.18108E-03   256   0.259E-01    0.734E-03
DAV:   4    -0.615696192294E+02   -0.11545E-04   -0.56893E-05   256   0.434E-02    0.940E-03
DAV:   5    -0.615696246620E+02   -0.54326E-05   -0.10916E-06   168   0.717E-03    0.173E-03
DAV:   6    -0.615696288545E+02   -0.41925E-05   -0.55772E-07   160   0.467E-03    0.155E-03
DAV:   7    -0.615696304713E+02   -0.16168E-05   -0.17776E-07   160   0.260E-03    0.111E-03
DAV:   8    -0.615696315367E+02   -0.10654E-05   -0.74643E-08   160   0.161E-03    0.275E-04
DAV:   9    -0.615696319551E+02   -0.41838E-06   -0.33309E-08   148   0.101E-03
   78 T=   352. E= -.61787537E+02 F= -.62163082E+02 E0= -.62163504E+02  EK= 0.36433E+00 SP= 0.11E-01 SK= 0.34E-03
       N       E                     dE             d eps       ncg     rms          rms(c)
DAV:   1    -0.615652310281E+02    0.44005E-02   -0.13245E+00   176   0.846E+00    0.242E-01
DAV:   2    -0.615658464093E+02   -0.61538E-03   -0.21500E-02   224   0.106E+00    0.326E-02
DAV:   3    -0.615660052025E+02   -0.15879E-03   -0.14929E-03   256   0.238E-01    0.653E-03
DAV:   4    -0.615660122082E+02   -0.70056E-05   -0.46785E-05   256   0.399E-02    0.489E-03
DAV:   5    -0.615660117738E+02    0.43439E-06   -0.61561E-07   160   0.510E-03
   79 T=   348. E= -.61787237E+02 F= -.62159018E+02 E0= -.62159383E+02  EK= 0.36035E+00 SP= 0.11E-01 SK= 0.37E-03
       N       E                     dE             d eps       ncg     rms          rms(c)
DAV:   1    -0.615595106679E+02    0.65015E-02   -0.12619E+00   176   0.828E+00    0.223E-01
DAV:   2    -0.615602599243E+02   -0.74926E-03   -0.19523E-02   224   0.100E+00    0.469E-02
DAV:   3    -0.615603858822E+02   -0.12596E-03   -0.12293E-03   256   0.216E-01    0.989E-03
DAV:   4    -0.615603991513E+02   -0.13269E-04   -0.40344E-05   256   0.370E-02    0.496E-03
DAV:   5    -0.615604044775E+02   -0.53262E-05   -0.70670E-07   160   0.521E-03    0.671E-03
DAV:   6    -0.615604114786E+02   -0.70011E-05   -0.29693E-07   160   0.369E-03    0.544E-03
DAV:   7    -0.615604128121E+02   -0.13335E-05   -0.21552E-07   160   0.253E-03    0.282E-03
DAV:   8    -0.615604149130E+02   -0.21009E-05   -0.90340E-08   160   0.189E-03    0.117E-03
DAV:   9    -0.615604177011E+02   -0.27881E-05   -0.37994E-08   160   0.130E-03    0.645E-04
DAV:  10    -0.615604188941E+02   -0.11930E-05   -0.19980E-08   160   0.916E-04    0.215E-04
DAV:  11    -0.615604190996E+02   -0.20551E-06   -0.86953E-09   124   0.569E-04
   80 T=   343. E= -.61787055E+02 F= -.62153096E+02 E0= -.62153438E+02  EK= 0.35440E+00 SP= 0.11E-01 SK= 0.40E-03
       N       E                     dE             d eps       ncg     rms          rms(c)
DAV:   1    -0.615544335781E+02    0.59853E-02   -0.12081E+00   176   0.814E+00    0.210E-01
DAV:   2    -0.615552674534E+02   -0.83388E-03   -0.18465E-02   224   0.969E-01    0.839E-02
DAV:   3    -0.615554736355E+02   -0.20618E-03   -0.11063E-03   256   0.203E-01    0.169E-02
DAV:   4    -0.615554781785E+02   -0.45430E-05   -0.37582E-05   256   0.362E-02    0.140E-02
DAV:   5    -0.615554759408E+02    0.22377E-05   -0.19900E-06   184   0.917E-03    0.449E-03
DAV:   6    -0.615554815531E+02   -0.56122E-05   -0.45658E-07   160   0.446E-03    0.405E-03
DAV:   7    -0.615554850450E+02   -0.34919E-05   -0.18239E-07   160   0.241E-03    0.159E-03
DAV:   8    -0.615554865465E+02   -0.15015E-05   -0.97779E-08   160   0.199E-03    0.624E-04
DAV:   9    -0.615554870082E+02   -0.46166E-06   -0.38612E-08   160   0.121E-03
   81 T=   338. E= -.61787007E+02 F= -.62147962E+02 E0= -.62148341E+02  EK= 0.34910E+00 SP= 0.11E-01 SK= 0.43E-03
       N       E                     dE             d eps       ncg     rms          rms(c)
DAV:   1    -0.615506063823E+02    0.48802E-02   -0.11734E+00   176   0.806E+00    0.203E-01
DAV:   2    -0.615516513660E+02   -0.10450E-02   -0.18210E-02   224   0.960E-01    0.393E-02
DAV:   3    -0.615517631792E+02   -0.11181E-03   -0.10136E-03   250   0.194E-01    0.108E-02
DAV:   4    -0.615517631594E+02    0.19842E-07   -0.36189E-05   256   0.348E-02    0.468E-03
DAV:   5    -0.615517656107E+02   -0.24513E-05   -0.69707E-07   176   0.581E-03    0.221E-03
DAV:   6    -0.615517694010E+02   -0.37904E-05   -0.24206E-07   160   0.265E-03    0.122E-03
DAV:   7    -0.615517712565E+02   -0.18555E-05   -0.82128E-08   160   0.197E-03    0.965E-04
DAV:   8    -0.615517725816E+02   -0.13251E-05   -0.56811E-08   160   0.150E-03    0.142E-03
DAV:   9    -0.615517730950E+02   -0.51340E-06   -0.24552E-08   154   0.974E-04
   82 T=   334. E= -.61787069E+02 F= -.62144178E+02 E0= -.62144670E+02  EK= 0.34503E+00 SP= 0.12E-01 SK= 0.46E-03
       N       E                     dE             d eps       ncg     rms          rms(c)
DAV:   1    -0.615470114580E+02    0.47611E-02   -0.11573E+00   176   0.803E+00    0.201E-01
DAV:   2    -0.615480857140E+02   -0.10743E-02   -0.18302E-02   224   0.967E-01    0.481E-02
DAV:   3    -0.615481980208E+02   -0.11231E-03   -0.10400E-03   250   0.195E-01    0.149E-02
DAV:   4    -0.615482071649E+02   -0.91441E-05   -0.36163E-05   256   0.333E-02    0.836E-03
DAV:   5    -0.615482074862E+02   -0.32137E-06   -0.65388E-07   162   0.545E-03
   83 T=   330. E= -.61787173E+02 F= -.62140678E+02 E0= -.62141351E+02  EK= 0.34120E+00 SP= 0.12E-01 SK= 0.48E-03
       N       E                     dE             d eps       ncg     rms          rms(c)
DAV:   1    -0.615419768961E+02    0.62303E-02   -0.11522E+00   176   0.802E+00    0.202E-01
DAV:   2    -0.615430038594E+02   -0.10270E-02   -0.18406E-02   224   0.976E-01    0.452E-02
DAV:   3    -0.615431196994E+02   -0.11584E-03   -0.11106E-03   250   0.202E-01    0.170E-02
DAV:   4    -0.615431203069E+02   -0.60756E-06   -0.37975E-05   264   0.342E-02    0.801E-03
DAV:   5    -0.615431197715E+02    0.53543E-06   -0.79913E-07   168   0.633E-03
   84 T=   325. E= -.61787255E+02 F= -.62135789E+02 E0= -.62136673E+02  EK= 0.33600E+00 SP= 0.12E-01 SK= 0.50E-03
       N       E                     dE             d eps       ncg     rms          rms(c)
DAV:   1    -0.615342021946E+02    0.89181E-02   -0.11487E+00   176   0.799E+00    0.203E-01
DAV:   2    -0.615351129914E+02   -0.91080E-03   -0.18536E-02   224   0.987E-01    0.579E-02
DAV:   3    -0.615352315338E+02   -0.11854E-03   -0.11416E-03   250   0.206E-01    0.522E-03
DAV:   4    -0.615352480159E+02   -0.16482E-04   -0.39311E-05   256   0.339E-02    0.710E-03
DAV:   5    -0.615352519099E+02   -0.38940E-05   -0.54839E-07   160   0.517E-03    0.458E-03
DAV:   6    -0.615352529489E+02   -0.10390E-05   -0.20405E-07   160   0.309E-03    0.372E-03
DAV:   7    -0.615352532855E+02   -0.33652E-06   -0.86855E-08   160   0.195E-03
   85 T=   317. E= -.61787290E+02 F= -.62128247E+02 E0= -.62129308E+02  EK= 0.32820E+00 SP= 0.12E-01 SK= 0.52E-03
       N       E                     dE             d eps       ncg     rms          rms(c)
DAV:   1    -0.615233594113E+02    0.11894E-01   -0.11392E+00   176   0.793E+00    0.208E-01
DAV:   2    -0.615241740624E+02   -0.81465E-03   -0.18836E-02   224   0.998E-01    0.505E-02
DAV:   3    -0.615242872394E+02   -0.11318E-03   -0.12114E-03   250   0.211E-01    0.241E-02
DAV:   4    -0.615242988631E+02   -0.11624E-04   -0.38661E-05   256   0.342E-02    0.175E-02
DAV:   5    -0.615242990563E+02   -0.19319E-06   -0.62165E-07   160   0.575E-03
   86 T=   307. E= -.61787251E+02 F= -.62117735E+02 E0= -.62118886E+02  EK= 0.31750E+00 SP= 0.12E-01 SK= 0.53E-03
       N       E                     dE             d eps       ncg     rms          rms(c)
DAV:   1    -0.615101843612E+02    0.14115E-01   -0.11205E+00   176   0.783E+00    0.212E-01
DAV:   2    -0.615108936018E+02   -0.70924E-03   -0.19090E-02   224   0.100E+00    0.452E-02
DAV:   3    -0.615110398787E+02   -0.14628E-03   -0.12615E-03   244   0.214E-01    0.183E-02
DAV:   4    -0.615110434825E+02   -0.36038E-05   -0.38752E-05   256   0.345E-02    0.858E-03
DAV:   5    -0.615110498778E+02   -0.63953E-05   -0.56063E-07   160   0.515E-03    0.654E-03
DAV:   6    -0.615110534399E+02   -0.35620E-05   -0.16986E-07   160   0.289E-03    0.617E-03
DAV:   7    -0.615110541825E+02   -0.74259E-06   -0.11400E-07   160   0.253E-03
   87 T=   295. E= -.61787187E+02 F= -.62105037E+02 E0= -.62106201E+02  EK= 0.30465E+00 SP= 0.13E-01 SK= 0.53E-03
       N       E                     dE             d eps       ncg     rms          rms(c)
DAV:   1    -0.614962100808E+02    0.14843E-01   -0.10938E+00   176   0.770E+00    0.215E-01
DAV:   2    -0.614968450631E+02   -0.63498E-03   -0.18919E-02   224   0.999E-01    0.942E-02
DAV:   3    -0.614969692922E+02   -0.12423E-03   -0.12764E-03   244   0.215E-01    0.185E-02
DAV:   4    -0.614969809498E+02   -0.11658E-04   -0.41442E-05   256   0.355E-02    0.107E-02
DAV:   5    -0.614969882791E+02   -0.73293E-05   -0.50472E-07   160   0.490E-03    0.116E-02
DAV:   6    -0.614969954023E+02   -0.71233E-05   -0.28854E-07   160   0.410E-03    0.131E-02
DAV:   7    -0.614969967799E+02   -0.13776E-05   -0.14636E-07   160   0.248E-03    0.103E-02
DAV:   8    -0.614969976739E+02   -0.89399E-06   -0.10340E-07   160   0.218E-03
   88 T=   282. E= -.61787101E+02 F= -.62091617E+02 E0= -.62092763E+02  EK= 0.29111E+00 SP= 0.13E-01 SK= 0.52E-03
       N       E                     dE             d eps       ncg     rms          rms(c)
DAV:   1    -0.614831328168E+02    0.13864E-01   -0.10621E+00   176   0.757E+00    0.218E-01
DAV:   2    -0.614836858453E+02   -0.55303E-03   -0.18336E-02   224   0.983E-01    0.108E-01
DAV:   3    -0.614838100495E+02   -0.12420E-03   -0.13041E-03   244   0.217E-01    0.537E-03
DAV:   4    -0.614838184811E+02   -0.84315E-05   -0.41066E-05   256   0.361E-02    0.801E-03
DAV:   5    -0.614838260458E+02   -0.75647E-05   -0.62806E-07   148   0.553E-03    0.364E-03
DAV:   6    -0.614838332845E+02   -0.72386E-05   -0.41367E-07   160   0.369E-03    0.564E-03
DAV:   7    -0.614838362998E+02   -0.30153E-05   -0.17229E-07   160   0.257E-03    0.376E-03
DAV:   8    -0.614838390165E+02   -0.27167E-05   -0.19335E-07   160   0.291E-03    0.125E-03
DAV:   9    -0.614838408186E+02   -0.18022E-05   -0.76169E-08   160   0.159E-03    0.269E-04
DAV:  10    -0.614838431856E+02   -0.23669E-05   -0.50879E-08   160   0.114E-03    0.661E-04
DAV:  11    -0.614838438005E+02   -0.61491E-06   -0.15256E-08   160   0.652E-04
   89 T=   269. E= -.61787041E+02 F= -.62079171E+02 E0= -.62080317E+02  EK= 0.27853E+00 SP= 0.13E-01 SK= 0.51E-03
       N       E                     dE             d eps       ncg     rms          rms(c)
DAV:   1    -0.614723440030E+02    0.11499E-01   -0.10294E+00   176   0.744E+00    0.222E-01
DAV:   2    -0.614728572332E+02   -0.51323E-03   -0.17521E-02   224   0.960E-01    0.671E-02
DAV:   3    -0.614729934257E+02   -0.13619E-03   -0.12863E-03   256   0.216E-01    0.136E-02
DAV:   4    -0.614729985884E+02   -0.51627E-05   -0.38178E-05   256   0.358E-02    0.138E-02
DAV:   5    -0.614730003162E+02   -0.17278E-05   -0.78836E-07   160   0.712E-03    0.250E-03
DAV:   6    -0.614730015539E+02   -0.12377E-05   -0.49480E-07   160   0.535E-03    0.110E-03
DAV:   7    -0.614730015972E+02   -0.43275E-07   -0.14505E-07   160   0.264E-03
   90 T=   259. E= -.61787037E+02 F= -.62069083E+02 E0= -.62070305E+02  EK= 0.26826E+00 SP= 0.13E-01 SK= 0.48E-03
       N       E                     dE             d eps       ncg     rms          rms(c)
DAV:   1    -0.614646392926E+02    0.83623E-02   -0.99925E-01   176   0.734E+00    0.228E-01
DAV:   2    -0.614651102831E+02   -0.47099E-03   -0.16803E-02   224   0.940E-01    0.336E-02
DAV:   3    -0.614652322830E+02   -0.12200E-03   -0.12339E-03   256   0.214E-01    0.234E-02
DAV:   4    -0.614652342938E+02   -0.20108E-05   -0.33957E-05   256   0.358E-02    0.919E-03
DAV:   5    -0.614652287732E+02    0.55206E-05   -0.94709E-07   160   0.745E-03    0.200E-03
DAV:   6    -0.614652338784E+02   -0.51052E-05   -0.26820E-07   160   0.384E-03    0.367E-03
DAV:   7    -0.614652393669E+02   -0.54885E-05   -0.20116E-07   160   0.309E-03    0.171E-03
DAV:   8    -0.614652407902E+02   -0.14233E-05   -0.58780E-08   160   0.177E-03    0.139E-03
DAV:   9    -0.614652412700E+02   -0.47988E-06   -0.25781E-08   160   0.904E-04
[...]
DAV:   3    -0.666079361055E+02   -0.20974E-05   -0.12834E-05   216   0.221E-02    0.184E-03
DAV:   4    -0.666079366806E+02   -0.57510E-06   -0.35440E-07   130   0.399E-03
  468 T=     3. E= -.61777374E+02 F= -.67136468E+02 E0= -.67139121E+02  EK= 0.30278E-02 SP= 0.43E+01 SK= 0.10E+01
       N       E                     dE             d eps       ncg     rms          rms(c)
DAV:   1    -0.666079739199E+02   -0.37814E-04   -0.11695E-02   194   0.780E-01    0.223E-02
DAV:   2    -0.666079797420E+02   -0.58221E-05   -0.22245E-04   216   0.104E-01    0.187E-03
DAV:   3    -0.666079824789E+02   -0.27369E-05   -0.13504E-05   210   0.226E-02    0.178E-03
DAV:   4    -0.666079828213E+02   -0.34239E-06   -0.36781E-07   142   0.406E-03
  469 T=     3. E= -.61777374E+02 F= -.67136605E+02 E0= -.67139270E+02  EK= 0.30721E-02 SP= 0.44E+01 SK= 0.10E+01
       N       E                     dE             d eps       ncg     rms          rms(c)
DAV:   1    -0.666079548619E+02    0.27617E-04   -0.11555E-02   194   0.777E-01    0.224E-02
DAV:   2    -0.666079607414E+02   -0.58796E-05   -0.21990E-04   228   0.104E-01    0.256E-03
DAV:   3    -0.666079630670E+02   -0.23256E-05   -0.13340E-05   204   0.226E-02    0.125E-03
DAV:   4    -0.666079631423E+02   -0.75271E-07   -0.35400E-07   130   0.397E-03
  470 T=     3. E= -.61777372E+02 F= -.67136666E+02 E0= -.67139343E+02  EK= 0.30422E-02 SP= 0.44E+01 SK= 0.99E+00
       N       E                     dE             d eps       ncg     rms          rms(c)
DAV:   1    -0.666078948749E+02    0.68192E-04   -0.11183E-02   194   0.767E-01    0.222E-02
DAV:   2    -0.666078991958E+02   -0.43209E-05   -0.21189E-04   220   0.103E-01    0.460E-03
DAV:   3    -0.666079011195E+02   -0.19237E-05   -0.14332E-05   224   0.231E-02    0.124E-03
DAV:   4    -0.666079010910E+02    0.28530E-07   -0.36116E-07   148   0.403E-03
  471 T=     3. E= -.61777370E+02 F= -.67136674E+02 E0= -.67139362E+02  EK= 0.29619E-02 SP= 0.44E+01 SK= 0.98E+00
       N       E                     dE             d eps       ncg     rms          rms(c)
DAV:   1    -0.666078209404E+02    0.80179E-04   -0.10687E-02   182   0.751E-01    0.219E-02
DAV:   2    -0.666078223922E+02   -0.14518E-05   -0.20260E-04   202   0.102E-01    0.404E-03
DAV:   3    -0.666078252444E+02   -0.28522E-05   -0.14279E-05   212   0.232E-02    0.862E-04
DAV:   4    -0.666078254069E+02   -0.16246E-06   -0.33636E-07   142   0.399E-03
  472 T=     3. E= -.61777368E+02 F= -.67136656E+02 E0= -.67139353E+02  EK= 0.28590E-02 SP= 0.44E+01 SK= 0.97E+00
       N       E                     dE             d eps       ncg     rms          rms(c)
DAV:   1    -0.666077608319E+02    0.64413E-04   -0.10187E-02   200   0.735E-01    0.216E-02
DAV:   2    -0.666077616423E+02   -0.81042E-06   -0.19118E-04   194   0.999E-02    0.273E-03
DAV:   3    -0.666077648665E+02   -0.32242E-05   -0.14626E-05   226   0.236E-02    0.160E-03
DAV:   4    -0.666077649352E+02   -0.68687E-07   -0.31819E-07   160   0.395E-03
  473 T=     3. E= -.61777367E+02 F= -.67136640E+02 E0= -.67139346E+02  EK= 0.27597E-02 SP= 0.44E+01 SK= 0.96E+00
       N       E                     dE             d eps       ncg     rms          rms(c)
DAV:   1    -0.666077365414E+02    0.28325E-04   -0.97748E-03   200   0.721E-01    0.213E-02
DAV:   2    -0.666077378630E+02   -0.13216E-05   -0.18162E-04   212   0.979E-02    0.159E-03
DAV:   3    -0.666077394892E+02   -0.16261E-05   -0.13401E-05   218   0.231E-02    0.267E-03
DAV:   4    -0.666077396717E+02   -0.18258E-06   -0.33550E-07   124   0.413E-03
  474 T=     3. E= -.61777367E+02 F= -.67136645E+02 E0= -.67139360E+02  EK= 0.26847E-02 SP= 0.44E+01 SK= 0.95E+00
       N       E                     dE             d eps       ncg     rms          rms(c)
DAV:   1    -0.666077580166E+02   -0.18527E-04   -0.95140E-03   194   0.712E-01    0.210E-02
DAV:   2    -0.666077590017E+02   -0.98506E-06   -0.17434E-04   212   0.960E-02    0.168E-03
DAV:   3    -0.666077600712E+02   -0.10695E-05   -0.12430E-05   218   0.226E-02    0.288E-03
DAV:   4    -0.666077604687E+02   -0.39754E-06   -0.30715E-07   130   0.402E-03
  475 T=     3. E= -.61777368E+02 F= -.67136685E+02 E0= -.67139406E+02  EK= 0.26450E-02 SP= 0.44E+01 SK= 0.94E+00
       N       E                     dE             d eps       ncg     rms          rms(c)
DAV:   1    -0.666078256747E+02   -0.65604E-04   -0.94116E-03   188   0.708E-01    0.206E-02
DAV:   2    -0.666078262044E+02   -0.52968E-06   -0.16823E-04   206   0.940E-02    0.159E-03
DAV:   3    -0.666078273524E+02   -0.11480E-05   -0.11330E-05   216   0.217E-02    0.975E-04
DAV:   4    -0.666078277408E+02   -0.38832E-06   -0.32872E-07   142   0.409E-03
  476 T=     3. E= -.61777368E+02 F= -.67136759E+02 E0= -.67139486E+02  EK= 0.26413E-02 SP= 0.44E+01 SK= 0.94E+00
       N       E                     dE             d eps       ncg     rms          rms(c)
DAV:   1    -0.666079291747E+02   -0.10182E-03   -0.94534E-03   188   0.710E-01    0.199E-02
DAV:   2    -0.666079306351E+02   -0.14604E-05   -0.16609E-04   212   0.924E-02    0.325E-03
DAV:   3    -0.666079324454E+02   -0.18103E-05   -0.10842E-05   224   0.210E-02    0.131E-03
DAV:   4    -0.666079326568E+02   -0.21142E-06   -0.26571E-07   136   0.366E-03
  477 T=     3. E= -.61777371E+02 F= -.67136861E+02 E0= -.67139594E+02  EK= 0.26640E-02 SP= 0.44E+01 SK= 0.93E+00
       N       E                     dE             d eps       ncg     rms          rms(c)
DAV:   1    -0.666080498269E+02   -0.11738E-03   -0.95683E-03   188   0.714E-01    0.194E-02
DAV:   2    -0.666080521511E+02   -0.23242E-05   -0.16528E-04   200   0.912E-02    0.481E-03
DAV:   3    -0.666080531991E+02   -0.10480E-05   -0.10479E-05   204   0.204E-02    0.251E-03
DAV:   4    -0.666080532597E+02   -0.60609E-07   -0.28559E-07   148   0.390E-03
  478 T=     3. E= -.61777371E+02 F= -.67136971E+02 E0= -.67139707E+02  EK= 0.26954E-02 SP= 0.44E+01 SK= 0.92E+00
       N       E                     dE             d eps       ncg     rms          rms(c)
DAV:   1    -0.666081629376E+02   -0.10974E-03   -0.96875E-03   188   0.718E-01    0.189E-02
DAV:   2    -0.666081658718E+02   -0.29342E-05   -0.16658E-04   206   0.908E-02    0.649E-03
DAV:   3    -0.666081681766E+02   -0.23047E-05   -0.10698E-05   212   0.204E-02    0.276E-03
DAV:   4    -0.666081686086E+02   -0.43202E-06   -0.29192E-07   136   0.392E-03
  479 T=     3. E= -.61777372E+02 F= -.67137069E+02 E0= -.67139809E+02  EK= 0.27138E-02 SP= 0.44E+01 SK= 0.91E+00
       N       E                     dE             d eps       ncg     rms          rms(c)
DAV:   1    -0.666082462440E+02   -0.78067E-04   -0.97200E-03   188   0.719E-01    0.184E-02
DAV:   2    -0.666082512539E+02   -0.50099E-05   -0.16839E-04   194   0.908E-02    0.366E-03
DAV:   3    -0.666082530453E+02   -0.17914E-05   -0.10520E-05   222   0.201E-02    0.238E-03
DAV:   4    -0.666082529829E+02    0.62399E-07   -0.32447E-07   148   0.419E-03
  480 T=     3. E= -.61777372E+02 F= -.67137131E+02 E0= -.67139874E+02  EK= 0.26983E-02 SP= 0.45E+01 SK= 0.90E+00
       N       E                     dE             d eps       ncg     rms          rms(c)
DAV:   1    -0.666082806073E+02   -0.27562E-04   -0.96004E-03   188   0.714E-01    0.172E-02
DAV:   2    -0.666082861412E+02   -0.55339E-05   -0.16947E-04   206   0.908E-02    0.585E-03
DAV:   3    -0.666082872777E+02   -0.11366E-05   -0.99521E-06   234   0.194E-02    0.545E-03
DAV:   4    -0.666082891131E+02   -0.18353E-05   -0.49813E-07   136   0.539E-03    0.477E-03
DAV:   5    -0.666082898467E+02   -0.73366E-06   -0.27003E-07   124   0.370E-03
  481 T=     3. E= -.61777372E+02 F= -.67137143E+02 E0= -.67139889E+02  EK= 0.26338E-02 SP= 0.45E+01 SK= 0.89E+00
       N       E                     dE             d eps       ncg     rms          rms(c)
DAV:   1    -0.666082571129E+02    0.32000E-04   -0.92925E-03   188   0.701E-01    0.163E-02
DAV:   2    -0.666082643085E+02   -0.71956E-05   -0.16504E-04   206   0.896E-02    0.103E-02
DAV:   3    -0.666082655343E+02   -0.12259E-05   -0.96799E-06   226   0.189E-02    0.763E-03
DAV:   4    -0.666082660851E+02   -0.55080E-06   -0.28764E-07   136   0.365E-03
  482 T=     2. E= -.61777370E+02 F= -.67137094E+02 E0= -.67139840E+02  EK= 0.25126E-02 SP= 0.45E+01 SK= 0.88E+00
       N       E                     dE             d eps       ncg     rms          rms(c)
DAV:   1    -0.666081731613E+02    0.92373E-04   -0.87854E-03   188   0.681E-01    0.157E-02
DAV:   2    -0.666081819113E+02   -0.87500E-05   -0.16032E-04   200   0.880E-02    0.821E-03
DAV:   3    -0.666081836119E+02   -0.17007E-05   -0.90502E-06   232   0.183E-02    0.649E-03
DAV:   4    -0.666081850324E+02   -0.14205E-05   -0.68156E-07   142   0.560E-03    0.420E-03
DAV:   5    -0.666081863556E+02   -0.13231E-05   -0.58059E-07   130   0.512E-03    0.141E-03
DAV:   6    -0.666081871816E+02   -0.82603E-06   -0.17770E-07   136   0.296E-03
  483 T=     2. E= -.61777372E+02 F= -.67136989E+02 E0= -.67139734E+02  EK= 0.23368E-02 SP= 0.45E+01 SK= 0.87E+00
       N       E                     dE             d eps       ncg     rms          rms(c)
DAV:   1    -0.666080442563E+02    0.14210E-03   -0.80826E-03   188   0.653E-01    0.152E-02
DAV:   2    -0.666080532936E+02   -0.90373E-05   -0.14832E-04   194   0.850E-02    0.627E-03
DAV:   3    -0.666080552396E+02   -0.19460E-05   -0.90393E-06   240   0.179E-02    0.506E-03
DAV:   4    -0.666080555042E+02   -0.26461E-06   -0.17620E-07   142   0.291E-03
  484 T=     2. E= -.61777371E+02 F= -.67136833E+02 E0= -.67139577E+02  EK= 0.21181E-02 SP= 0.45E+01 SK= 0.87E+00
       N       E                     dE             d eps       ncg     rms          rms(c)
DAV:   1    -0.666078814321E+02    0.17381E-03   -0.72818E-03   188   0.619E-01    0.148E-02
DAV:   2    -0.666078904552E+02   -0.90232E-05   -0.13658E-04   200   0.821E-02    0.104E-02
DAV:   3    -0.666078918745E+02   -0.14193E-05   -0.83202E-06   218   0.174E-02    0.101E-02
DAV:   4    -0.666078918871E+02   -0.12637E-07   -0.24017E-07   136   0.337E-03
  485 T=     2. E= -.61777371E+02 F= -.67136647E+02 E0= -.67139390E+02  EK= 0.18762E-02 SP= 0.45E+01 SK= 0.86E+00
       N       E                     dE             d eps       ncg     rms          rms(c)
DAV:   1    -0.666077114454E+02    0.18043E-03   -0.64582E-03   188   0.582E-01    0.167E-02
DAV:   2    -0.666077184968E+02   -0.70515E-05   -0.12331E-04   200   0.793E-02    0.198E-02
DAV:   3    -0.666077197704E+02   -0.12736E-05   -0.79415E-06   218   0.172E-02    0.214E-02
DAV:   4    -0.666077211674E+02   -0.13970E-05   -0.34973E-07   124   0.423E-03    0.242E-02
DAV:   5    -0.666077216008E+02   -0.43339E-06   -0.21439E-07   148   0.327E-03
  486 T=     2. E= -.61777371E+02 F= -.67136457E+02 E0= -.67139199E+02  EK= 0.16364E-02 SP= 0.45E+01 SK= 0.85E+00
       N       E                     dE             d eps       ncg     rms          rms(c)
DAV:   1    -0.666075614097E+02    0.15976E-03   -0.57092E-03   188   0.546E-01    0.275E-02
DAV:   2    -0.666075697121E+02   -0.83024E-05   -0.11143E-04   212   0.767E-02    0.368E-02
DAV:   3    -0.666075717574E+02   -0.20453E-05   -0.83519E-06   224   0.177E-02    0.386E-02
DAV:   4    -0.666075720069E+02   -0.24953E-06   -0.22738E-07   160   0.322E-03
  487 T=     1. E= -.61777374E+02 F= -.67136290E+02 E0= -.67139031E+02  EK= 0.14243E-02 SP= 0.45E+01 SK= 0.84E+00
       N       E                     dE             d eps       ncg     rms          rms(c)
DAV:   1    -0.666074562661E+02    0.11549E-03   -0.51103E-03   176   0.515E-01    0.404E-02
DAV:   2    -0.666074676679E+02   -0.11402E-04   -0.10331E-04   220   0.753E-02    0.543E-02
DAV:   3    -0.666074689613E+02   -0.12934E-05   -0.78262E-06   222   0.176E-02    0.560E-02
DAV:   4    -0.666074688508E+02    0.11053E-06   -0.20307E-07   160   0.298E-03
  488 T=     1. E= -.61777381E+02 F= -.67136172E+02 E0= -.67138912E+02  EK= 0.12619E-02 SP= 0.45E+01 SK= 0.83E+00
       N       E                     dE             d eps       ncg     rms          rms(c)
DAV:   1    -0.666074171849E+02    0.51776E-04   -0.47224E-03   188   0.494E-01    0.588E-02
DAV:   2    -0.666074374702E+02   -0.20285E-04   -0.10388E-04   202   0.769E-02    0.812E-02
DAV:   3    -0.666074375680E+02   -0.97846E-07   -0.90887E-06   208   0.192E-02    0.813E-02
DAV:   4    -0.666074439135E+02   -0.63455E-05   -0.19132E-06   154   0.897E-03    0.890E-02
DAV:   5    -0.666074435004E+02    0.41313E-06   -0.41877E-07   124   0.448E-03
  489 T=     1. E= -.61777407E+02 F= -.67136133E+02 E0= -.67138874E+02  EK= 0.11642E-02 SP= 0.45E+01 SK= 0.82E+00
       N       E                     dE             d eps       ncg     rms          rms(c)
DAV:   1    -0.666074618176E+02   -0.17904E-04   -0.45786E-03   200   0.484E-01    0.916E-02
DAV:   2    -0.666075068744E+02   -0.45057E-04   -0.11637E-04   202   0.815E-02    0.123E-01
DAV:   3    -0.666075063368E+02    0.53762E-06   -0.11856E-05   208   0.221E-02    0.124E-01
DAV:   4    -0.666075033900E+02    0.29468E-05   -0.35718E-07   148   0.424E-03    0.122E-01
DAV:   5    -0.666074732691E+02    0.30121E-04   -0.15666E-05   200   0.247E-02    0.985E-02
DAV:   6    -0.666074674727E+02    0.57965E-05   -0.42259E-06   212   0.132E-02    0.916E-02
DAV:   7    -0.666074676066E+02   -0.13390E-06   -0.93354E-08   142   0.231E-03
  490 T=     1. E= -.61777414E+02 F= -.67136146E+02 E0= -.67138885E+02  EK= 0.11387E-02 SP= 0.45E+01 SK= 0.81E+00
       N       E                     dE             d eps       ncg     rms          rms(c)
DAV:   1    -0.666075582067E+02   -0.90734E-04   -0.46916E-03   188   0.489E-01    0.941E-02
DAV:   2    -0.666075883259E+02   -0.30119E-04   -0.10922E-04   214   0.785E-02    0.117E-01
DAV:   3    -0.666075869152E+02    0.14107E-05   -0.94194E-06   208   0.197E-02    0.117E-01
DAV:   4    -0.666075387438E+02    0.48171E-04   -0.36990E-04   194   0.120E-01    0.215E-02
DAV:   5    -0.666075439759E+02   -0.52321E-05   -0.48588E-05   194   0.469E-02    0.189E-02
DAV:   6    -0.666075357054E+02    0.82705E-05   -0.72022E-06   200   0.169E-02    0.107E-02
DAV:   7    -0.666075351605E+02    0.54487E-06   -0.19221E-06   142   0.931E-03
  491 T=     1. E= -.61777386E+02 F= -.67136202E+02 E0= -.67138934E+02  EK= 0.11912E-02 SP= 0.46E+01 SK= 0.81E+00
       N       E                     dE             d eps       ncg     rms          rms(c)
DAV:   1    -0.666077024942E+02   -0.16679E-03   -0.50878E-03   194   0.510E-01    0.210E-02
DAV:   2    -0.666077019047E+02    0.58954E-06   -0.10879E-04   208   0.757E-02    0.154E-02
DAV:   3    -0.666077039211E+02   -0.20165E-05   -0.96222E-06   190   0.195E-02    0.111E-02
DAV:   4    -0.666077049484E+02   -0.10272E-05   -0.53123E-07   148   0.527E-03    0.111E-02
DAV:   5    -0.666077068488E+02   -0.19005E-05   -0.21571E-07   142   0.342E-03    0.113E-02
DAV:   6    -0.666077091136E+02   -0.22648E-05   -0.77377E-07   142   0.598E-03    0.127E-02
DAV:   7    -0.666077093627E+02   -0.24909E-06   -0.25064E-07   148   0.373E-03
  492 T=     1. E= -.61777399E+02 F= -.67136366E+02 E0= -.67139095E+02  EK= 0.13085E-02 SP= 0.46E+01 SK= 0.80E+00
       N       E                     dE             d eps       ncg     rms          rms(c)
DAV:   1    -0.666079141356E+02   -0.20502E-03   -0.55979E-03   188   0.536E-01    0.223E-02
DAV:   2    -0.666079157546E+02   -0.16191E-05   -0.11591E-04   208   0.778E-02    0.134E-02
DAV:   3    -0.666079177866E+02   -0.20320E-05   -0.80705E-06   208   0.178E-02    0.159E-02
DAV:   4    -0.666079169074E+02    0.87916E-06   -0.29723E-07   136   0.387E-03
  493 T=     1. E= -.61777402E+02 F= -.67136561E+02 E0= -.67139289E+02  EK= 0.14635E-02 SP= 0.46E+01 SK= 0.79E+00
       N       E                     dE             d eps       ncg     rms          rms(c)
DAV:   1    -0.666081420649E+02   -0.22428E-03   -0.61910E-03   188   0.566E-01    0.230E-02
DAV:   2    -0.666081434774E+02   -0.14125E-05   -0.12457E-04   208   0.801E-02    0.142E-02
DAV:   3    -0.666081457939E+02   -0.23165E-05   -0.78061E-06   208   0.176E-02    0.161E-02
DAV:   4    -0.666081456816E+02    0.11226E-06   -0.26154E-07   124   0.362E-03
  494 T=     2. E= -.61777405E+02 F= -.67136776E+02 E0= -.67139503E+02  EK= 0.16335E-02 SP= 0.46E+01 SK= 0.78E+00
       N       E                     dE             d eps       ncg     rms          rms(c)
DAV:   1    -0.666083672408E+02   -0.22145E-03   -0.67548E-03   200   0.592E-01    0.231E-02
DAV:   2    -0.666083701620E+02   -0.29212E-05   -0.13227E-04   214   0.818E-02    0.149E-02
DAV:   3    -0.666083721625E+02   -0.20005E-05   -0.78364E-06   210   0.176E-02    0.163E-02
DAV:   4    -0.666083721673E+02   -0.47889E-08   -0.21069E-07   160   0.320E-03
  495 T=     2. E= -.61777409E+02 F= -.67136987E+02 E0= -.67139712E+02  EK= 0.17946E-02 SP= 0.46E+01 SK= 0.77E+00
       N       E                     dE             d eps       ncg     rms          rms(c)
DAV:   1    -0.666085699989E+02   -0.19784E-03   -0.72140E-03   188   0.614E-01    0.232E-02
DAV:   2    -0.666085737662E+02   -0.37673E-05   -0.13704E-04   208   0.826E-02    0.153E-02
DAV:   3    -0.666085748434E+02   -0.10773E-05   -0.84664E-06   216   0.182E-02    0.175E-02
DAV:   4    -0.666085747053E+02    0.13817E-06   -0.23504E-07   154   0.346E-03
  496 T=     2. E= -.61777410E+02 F= -.67137170E+02 E0= -.67139893E+02  EK= 0.19267E-02 SP= 0.46E+01 SK= 0.76E+00
       N       E                     dE             d eps       ncg     rms          rms(c)
DAV:   1    -0.666087354304E+02   -0.16059E-03   -0.75120E-03   188   0.627E-01    0.232E-02
DAV:   2    -0.666087398410E+02   -0.44106E-05   -0.13773E-04   206   0.828E-02    0.152E-02
DAV:   3    -0.666087416578E+02   -0.18168E-05   -0.87338E-06   244   0.181E-02    0.170E-02
DAV:   4    -0.666087432915E+02   -0.16337E-05   -0.26583E-07   136   0.371E-03    0.164E-02
DAV:   5    -0.666087399607E+02    0.33308E-05   -0.21964E-06   156   0.884E-03    0.167E-02
DAV:   6    -0.666087392248E+02    0.73590E-06   -0.51347E-07   142   0.511E-03
  497 T=     2. E= -.61777408E+02 F= -.67137311E+02 E0= -.67140032E+02  EK= 0.20179E-02 SP= 0.46E+01 SK= 0.76E+00
       N       E                     dE             d eps       ncg     rms          rms(c)
DAV:   1    -0.666088656473E+02   -0.12569E-03   -0.76507E-03   200   0.634E-01    0.187E-02
DAV:   2    -0.666088742832E+02   -0.86359E-05   -0.13533E-04   194   0.821E-02    0.434E-03
DAV:   3    -0.666088755426E+02   -0.12594E-05   -0.72500E-06   222   0.167E-02    0.407E-03
DAV:   4    -0.666088766384E+02   -0.10958E-05   -0.38224E-07   130   0.449E-03    0.301E-03
DAV:   5    -0.666088770795E+02   -0.44110E-06   -0.13871E-07   136   0.274E-03
  498 T=     2. E= -.61777418E+02 F= -.67137423E+02 E0= -.67140141E+02  EK= 0.20653E-02 SP= 0.46E+01 SK= 0.75E+00
       N       E                     dE             d eps       ncg     rms          rms(c)
DAV:   1    -0.666089597348E+02   -0.83096E-04   -0.76046E-03   200   0.632E-01    0.161E-02
DAV:   2    -0.666089646174E+02   -0.48826E-05   -0.13192E-04   200   0.810E-02    0.385E-03
DAV:   3    -0.666089656863E+02   -0.10689E-05   -0.79522E-06   218   0.174E-02    0.299E-03
DAV:   4    -0.666089658766E+02   -0.19030E-06   -0.24605E-07   142   0.355E-03
  499 T=     2. E= -.61777417E+02 F= -.67137481E+02 E0= -.67140196E+02  EK= 0.20714E-02 SP= 0.46E+01 SK= 0.74E+00
       N       E                     dE             d eps       ncg     rms          rms(c)
DAV:   1    -0.666090186747E+02   -0.52988E-04   -0.74473E-03   188   0.626E-01    0.157E-02
DAV:   2    -0.666090237984E+02   -0.51237E-05   -0.12833E-04   206   0.796E-02    0.413E-03
DAV:   3    -0.666090249980E+02   -0.11996E-05   -0.76556E-06   212   0.171E-02    0.489E-03
DAV:   4    -0.666090252271E+02   -0.22911E-06   -0.20845E-07   136   0.329E-03
  500 T=     2. E= -.61777415E+02 F= -.67137508E+02 E0= -.67140219E+02  EK= 0.20457E-02 SP= 0.46E+01 SK= 0.73E+00
