<?xml version="1.0" encoding="ISO-8859-1"?>
<modeling>
 <generator>
  <i name="program" type="string">vasp </i>
  <i name="version" type="string">6.2.1  </i>
  <i name="subversion" type="string">16May21 (build Oct 21 2023 21:03:18) complex                          parallel </i>
  <i name="platform" type="string">LinuxIFC </i>
  <i name="date" type="string">2024 06 20 </i>
  <i name="time" type="string">04:08:09 </i>
 </generator>
 <incar>
  <i type="int" name="ISTART">     0</i>
  <i type="string" name="PREC">normal</i>
  <i type="int" name="IALGO">    48</i>
  <i type="string" name="ALGO">normal</i>
  <i type="int" name="NSIM">     4</i>
  <i type="int" name="MAXMIX">    40</i>
  <i type="int" name="NELMIN">     4</i>
  <i type="int" name="IBRION">     0</i>
  <i name="EDIFF">      0.00000100</i>
  <i name="EDIFFG">      0.00001000</i>
  <i type="int" name="NSW">   500</i>
  <i type="int" name="ISIF">     2</i>
  <i type="int" name="IWAVPR">    11</i>
  <i type="int" name="ISYM">     0</i>
  <i type="int" name="NBLOCK">     1</i>
  <i type="int" name="KBLOCK">    10</i>
  <i name="ENCUT">    600.00000000</i>
  <i name="POTIM">      1.00000000</i>
  <i name="TEBEG">    300.00000000</i>
  <i name="SMASS">      2.00000000</i>
  <i type="logical" name="LREAL"> F  </i>
  <i type="logical" name="LPLANE"> T  </i>
  <i type="int" name="ISMEAR">     2</i>
  <i name="SIGMA">      0.20000000</i>
  <i type="int" name="NWRITE">     0</i>
  <i name="PSTRESS">      0.00010000</i>
  <i type="logical" name="LWAVE"> F  </i>
  <i type="logical" name="LCHARG"> F  </i>
  <i type="int" name="MDALGO">     2</i>
  <i type="int" name="IVDW">    12</i>
 </incar>
 <primitive_cell>
  <structure name="primitive_cell" >
   <crystal>
    <varray name="basis" >
     <v>       6.52418587       0.00000000       0.00000000 </v>
     <v>       3.26209293       4.24820353       0.00000000 </v>
     <v>       0.00000000       0.00000000      20.21746794 </v>
    </varray>
    <i name="volume">    560.34874575 </i>
    <varray name="rec_basis" >
     <v>       0.15327583      -0.11769681       0.00000000 </v>
     <v>       0.00000000       0.23539362       0.00000000 </v>
     <v>       0.00000000       0.00000000       0.04946218 </v>
    </varray>
   </crystal>
   <varray name="positions" >
    <v>       0.15396375       0.16211223       0.50204715 </v>
    <v>       0.34059494       0.33974858       0.50022858 </v>
    <v>       0.19042593       0.64896702       0.49990603 </v>
    <v>       0.32351906       0.85422030       0.49944323 </v>
    <v>       0.66387368       0.15080362       0.50114680 </v>
    <v>       0.82768540       0.34091675       0.49699100 </v>
    <v>       0.67745930       0.66579139       0.49996398 </v>
    <v>       0.81935532       0.84092908       0.49850540 </v>
   </varray>
  </structure>
  <varray name="primitive_index" >
   <v type="int" >        1 </v>
   <v type="int" >        2 </v>
   <v type="int" >        3 </v>
   <v type="int" >        4 </v>
   <v type="int" >        5 </v>
   <v type="int" >        6 </v>
   <v type="int" >        7 </v>
   <v type="int" >        8 </v>
  </varray>
 </primitive_cell>
 <kpoints>
  <generation param="Monkhorst-Pack">
   <v type="int" name="divisions">       2        2        1 </v>
   <v name="usershift">      0.00000000       0.00000000       0.00000000 </v>
   <v name="genvec1">      0.50000000       0.00000000       0.00000000 </v>
   <v name="genvec2">      0.00000000       0.50000000       0.00000000 </v>
   <v name="genvec3">      0.00000000       0.00000000       1.00000000 </v>
   <v name="shift">      0.50000000       0.50000000       0.00000000 </v>
  </generation>
  <varray name="kpointlist" >
   <v>       0.25000000       0.25000000       0.00000000 </v>
   <v>       0.25000000       0.00000000       0.00000000 </v>
   <v>      -0.25000000       0.25000000       0.00000000 </v>
   <v>      -0.25000000       0.50000000       0.00000000 </v>
  </varray>
  <varray name="weights" >
   <v>       0.25000000 </v>
   <v>       0.25000000 </v>
   <v>       0.25000000 </v>
   <v>       0.25000000 </v>
  </varray>
 </kpoints>
 <parameters>
  <separator name="general" >
   <i type="string" name="SYSTEM">unknown system</i>
   <i type="logical" name="LCOMPAT"> F  </i>
  </separator>
  <separator name="electronic" >
   <i type="string" name="PREC">normal</i>
   <i name="ENMAX">    600.00000000</i>
   <i name="ENAUG">    644.87300000</i>
   <i name="EDIFF">      0.00000100</i>
   <i type="int" name="IALGO">    38</i>
   <i type="int" name="IWAVPR">    11</i>
   <i type="int" name="NBANDS">    22</i>
   <i type="int" name="NBANDSLOW">    -1</i>
   <i type="int" name="NBANDSHIGH">    -1</i>
   <i name="NELECT">     32.00000000</i>
   <i type="int" name="TURBO">     0</i>
   <i type="int" name="IRESTART">     0</i>
   <i type="int" name="NREBOOT">     0</i>
   <i type="int" name="NMIN">     0</i>
   <i name="EREF">      0.00000000</i>
   <separator name="electronic smearing" >
    <i type="int" name="ISMEAR">     2</i>
    <i name="SIGMA">      0.20000000</i>
    <i name="KSPACING">      0.50000000</i>
    <i type="logical" name="KGAMMA"> T  </i>
    <i type="logical" name="KBLOWUP"> T  </i>
   </separator>
   <separator name="electronic projectors" >
    <i type="logical" name="LREAL"> F  </i>
    <v name="ROPT">      0.00000000</v>
    <i type="int" name="LMAXPAW">  -100</i>
    <i type="int" name="LMAXMIX">     2</i>
    <i type="logical" name="NLSPLINE"> F  </i>
   </separator>
   <separator name="electronic startup" >
    <i type="int" name="ISTART">     0</i>
    <i type="int" name="ICHARG">     2</i>
    <i type="int" name="INIWAV">     1</i>
   </separator>
   <separator name="electronic spin" >
    <i type="int" name="ISPIN">     1</i>
    <i type="logical" name="LNONCOLLINEAR"> F  </i>
    <v name="MAGMOM">      1.00000000      1.00000000      1.00000000      1.00000000      1.00000000      1.00000000      1.00000000      1.00000000</v>
    <i name="NUPDOWN">     -1.00000000</i>
    <i type="logical" name="LSORBIT"> F  </i>
    <v name="SAXIS">      0.00000000      0.00000000      1.00000000</v>
    <i type="logical" name="LSPIRAL"> F  </i>
    <v name="QSPIRAL">      0.00000000      0.00000000      0.00000000</v>
    <i type="logical" name="LZEROZ"> F  </i>
   </separator>
   <separator name="electronic exchange-correlation" >
    <i type="logical" name="LASPH"> F  </i>
    <i type="logical" name="LMETAGGA"> F  </i>
   </separator>
   <separator name="electronic convergence" >
    <i type="int" name="NELM">    60</i>
    <i type="int" name="NELMDL">    -5</i>
    <i type="int" name="NELMIN">     4</i>
    <i name="ENINI">    600.00000000</i>
    <separator name="electronic convergence detail" >
     <i type="logical" name="LDIAG"> T  </i>
     <i type="logical" name="LSUBROT"> F  </i>
     <i name="WEIMIN">      0.00100000</i>
     <i name="EBREAK">      0.00000001</i>
     <i name="DEPER">      0.30000000</i>
     <i type="int" name="NRMM">     4</i>
     <i name="TIME">      0.40000000</i>
    </separator>
   </separator>
   <separator name="electronic mixer" >
    <i name="AMIX">      0.40000000</i>
    <i name="BMIX">      1.00000000</i>
    <i name="AMIN">      0.10000000</i>
    <i name="AMIX_MAG">      1.60000000</i>
    <i name="BMIX_MAG">      1.00000000</i>
    <separator name="electronic mixer details" >
     <i type="int" name="IMIX">     4</i>
     <i type="logical" name="MIXFIRST"> F  </i>
     <i type="int" name="MAXMIX">    40</i>
     <i name="WC">    100.00000000</i>
     <i type="int" name="INIMIX">     1</i>
     <i type="int" name="MIXPRE">     1</i>
     <i type="int" name="MREMOVE">     5</i>
    </separator>
   </separator>
   <separator name="electronic dipolcorrection" >
    <i type="logical" name="LDIPOL"> F  </i>
    <i type="logical" name="LMONO"> F  </i>
    <i type="int" name="IDIPOL">     0</i>
    <i name="EPSILON">      1.00000000</i>
    <v name="DIPOL">   -100.00000000   -100.00000000   -100.00000000</v>
    <i name="EFIELD">      0.00000000</i>
   </separator>
  </separator>
  <separator name="grids" >
   <i type="int" name="NGX">    40</i>
   <i type="int" name="NGY">    32</i>
   <i type="int" name="NGZ">   126</i>
   <i type="int" name="NGXF">    80</i>
   <i type="int" name="NGYF">    64</i>
   <i type="int" name="NGZF">   252</i>
   <i type="logical" name="ADDGRID"> F  </i>
  </separator>
  <separator name="ionic" >
   <i type="int" name="NSW">   500</i>
   <i type="int" name="IBRION">     0</i>
   <i type="int" name="MDALGO">     2</i>
   <i type="int" name="ISIF">     2</i>
   <i name="PSTRESS">      0.00010000</i>
   <i name="EDIFFG">      0.00001000</i>
   <i type="int" name="NFREE">     0</i>
   <i name="POTIM">      1.00000000</i>
   <i name="SMASS">      2.00000000</i>
   <i name="SCALEE">      1.00000000</i>
  </separator>
  <separator name="ionic md" >
   <i name="TEBEG">    300.00000000</i>
   <i name="TEEND">    300.00000000</i>
   <i type="int" name="NBLOCK">     1</i>
   <i type="int" name="KBLOCK">    10</i>
   <i type="int" name="NPACO">   256</i>
   <i name="APACO">     16.00000000</i>
  </separator>
  <separator name="symmetry" >
   <i type="int" name="ISYM">     0</i>
   <i name="SYMPREC">      0.00001000</i>
  </separator>
  <separator name="dos" >
   <i type="int" name="LORBIT">     0</i>
   <v name="RWIGS">     -1.00000000</v>
   <i type="int" name="NEDOS">   301</i>
   <i name="EMIN">     10.00000000</i>
   <i name="EMAX">    -10.00000000</i>
   <i name="EFERMI">      0.00000000</i>
  </separator>
  <separator name="writing" >
   <i type="int" name="NWRITE">     0</i>
   <i type="logical" name="LWAVE"> F  </i>
   <i type="logical" name="LDOWNSAMPLE"> F  </i>
   <i type="logical" name="LCHARG"> F  </i>
   <i type="logical" name="LPARD"> F  </i>
   <i type="logical" name="LVTOT"> F  </i>
   <i type="logical" name="LVHAR"> F  </i>
   <i type="logical" name="LELF"> F  </i>
   <i type="logical" name="LOPTICS"> F  </i>
   <v name="STM">      0.00000000      0.00000000      0.00000000      0.00000000      0.00000000      0.00000000      0.00000000</v>
  </separator>
  <separator name="performance" >
   <i type="int" name="NPAR">     2</i>
   <i type="int" name="NSIM">     4</i>
   <i type="int" name="NBLK">    -1</i>
   <i type="logical" name="LPLANE"> T  </i>
   <i type="logical" name="LSCALAPACK"> T  </i>
   <i type="logical" name="LSCAAWARE"> F  </i>
   <i type="logical" name="LSCALU"> F  </i>
   <i type="logical" name="LASYNC"> F  </i>
   <i type="logical" name="LORBITALREAL"> F  </i>
  </separator>
  <separator name="miscellaneous" >
   <i type="int" name="IDIOT">     3</i>
   <i type="int" name="PHON_NSTRUCT">    -1</i>
   <i type="logical" name="LMUSIC"> F  </i>
   <v name="POMASS">     12.01100000</v>
   <v name="DARWINR">      0.00000000</v>
   <v name="DARWINV">      1.00000000</v>
   <i type="logical" name="LCORR"> T  </i>
  </separator>
  <i type="logical" name="GGA_COMPAT"> T  </i>
  <i type="logical" name="LBERRY"> F  </i>
  <i type="int" name="ICORELEVEL">     0</i>
  <i type="logical" name="LDAU"> F  </i>
  <i type="int" name="I_CONSTRAINED_M">     0</i>
  <separator name="electronic exchange-correlation" >
   <i type="string" name="GGA">--</i>
   <i type="int" name="VOSKOWN">     0</i>
   <i type="logical" name="LHFCALC"> F  </i>
   <i type="string" name="PRECFOCK"></i>
   <i type="logical" name="LSYMGRAD"> F  </i>
   <i type="logical" name="LHFONE"> F  </i>
   <i type="logical" name="LRHFCALC"> F  </i>
   <i type="logical" name="LTHOMAS"> F  </i>
   <i type="logical" name="LMODELHF"> F  </i>
   <i type="logical" name="LFOCKACE"> F  </i>
   <i name="ENCUT4O">     -1.00000000</i>
   <i type="int" name="EXXOEP">     0</i>
   <i type="int" name="FOURORBIT">     0</i>
   <i name="AEXX">      0.00000000</i>
   <i name="HFALPHA">      0.00000000</i>
   <i name="MCALPHA">      0.00000000</i>
   <i name="ALDAX">      1.00000000</i>
   <i name="AGGAX">      1.00000000</i>
   <i name="ALDAC">      1.00000000</i>
   <i name="AGGAC">      1.00000000</i>
   <i type="int" name="NKREDX">     1</i>
   <i type="int" name="NKREDY">     1</i>
   <i type="int" name="NKREDZ">     1</i>
   <i type="logical" name="SHIFTRED"> F  </i>
   <i type="logical" name="ODDONLY"> F  </i>
   <i type="logical" name="EVENONLY"> F  </i>
   <i type="int" name="LMAXFOCK">     0</i>
   <i type="int" name="NMAXFOCKAE">     0</i>
   <i type="logical" name="LFOCKAEDFT"> F  </i>
   <i name="HFSCREEN">      0.00000000</i>
   <i name="HFSCREENC">      0.00000000</i>
   <i type="int" name="NBANDSGWLOW">     0</i>
  </separator>
  <separator name="vdW DFT" >
   <i type="logical" name="LUSE_VDW"> F  </i>
   <i name="Zab_VDW">     -0.84910000</i>
   <i name="PARAM1">      0.12340000</i>
   <i name="PARAM2">      1.00000000</i>
   <i name="PARAM3">      0.00000000</i>
  </separator>
  <separator name="model GW" >
   <i type="int" name="MODEL_GW">     0</i>
   <i name="MODEL_EPS0">     42.02615593</i>
   <i name="MODEL_ALPHA">      1.00000000</i>
  </separator>
  <separator name="linear response parameters" >
   <i type="logical" name="LEPSILON"> F  </i>
   <i type="logical" name="LRPA"> F  </i>
   <i type="logical" name="LNABLA"> F  </i>
   <i type="logical" name="LVEL"> F  </i>
   <i type="int" name="KINTER">     0</i>
   <i name="CSHIFT">      0.10000000</i>
   <i name="OMEGAMAX">     -1.00000000</i>
   <i name="DEG_THRESHOLD">      0.00200000</i>
   <i name="RTIME">     -0.10000000</i>
   <i name="WPLASMAI">      0.00000000</i>
   <v name="DFIELD">      0.00000000      0.00000000      0.00000000</v>
   <v name="WPLASMA">      0.00000000      0.00000000      0.00000000      0.00000000      0.00000000      0.00000000      0.00000000      0.00000000      0.00000000</v>
  </separator>
  <separator name="orbital magnetization" >
   <i type="logical" name="NUCIND"> F  </i>
   <v name="MAGPOS">      0.00000000      0.00000000      0.00000000</v>
   <i type="logical" name="LNICSALL"> T  </i>
   <i type="logical" name="ORBITALMAG"> F  </i>
   <i type="logical" name="LMAGBLOCH"> F  </i>
   <i type="logical" name="LCHIMAG"> F  </i>
   <i type="logical" name="LGAUGE"> T  </i>
   <i type="int" name="MAGATOM">     0</i>
   <v name="MAGDIPOL">      0.00000000      0.00000000      0.00000000</v>
   <v name="AVECCONST">      0.00000000      0.00000000      0.00000000</v>
  </separator>
  <separator name="response functions" >
   <i type="logical" name="LFINITE_TEMPERATURE"> F  </i>
   <i type="logical" name="LADDER"> F  </i>
   <i type="logical" name="LRPAFORCE"> F  </i>
   <i type="logical" name="LFXC"> F  </i>
   <i type="logical" name="LHARTREE"> T  </i>
   <i type="int" name="IBSE">     0</i>
   <v type="int" name="KPOINT">    -1     0     0     0</v>
   <i type="logical" name="LTCTC"> F  </i>
   <i type="logical" name="LTCTE"> F  </i>
   <i type="logical" name="LTETE"> F  </i>
   <i type="logical" name="LTRIPLET"> F  </i>
   <i type="logical" name="LFXCEPS"> F  </i>
   <i type="logical" name="LFXHEG"> F  </i>
   <i type="int" name="NATURALO">     2</i>
   <i type="logical" name="LHOLEGF"> F  </i>
   <i type="logical" name="L2ORDER"> F  </i>
   <i type="logical" name="LDMP1"> F  </i>
   <i type="logical" name="LMP2LT"> F  </i>
   <i type="logical" name="LSMP2LT"> F  </i>
   <i type="logical" name="LGWLF"> F  </i>
   <i name="ENCUTGW">     -2.00000000</i>
   <i name="ENCUTGWSOFT">     -2.00000000</i>
   <i name="ENCUTLF">     -1.00000000</i>
   <i type="logical" name="LESF_SPLINES"> F  </i>
   <i type="int" name="LMAXMP2">    -1</i>
   <i name="SCISSOR">      0.00000000</i>
   <i type="int" name="NOMEGA">     0</i>
   <i type="int" name="NOMEGAR">     0</i>
   <i type="int" name="NBANDSGW">    -1</i>
   <i type="int" name="NBANDSO">    -1</i>
   <i type="int" name="NBANDSV">    -1</i>
   <i type="int" name="NELM">     1</i>
   <i type="int" name="NELMHF">     1</i>
   <i type="int" name="DIM">     3</i>
   <i type="int" name="IESPILON">     4</i>
   <i type="int" name="ANTIRES">     0</i>
   <i name="OMEGAMAX">    -30.00000000</i>
   <i name="OMEGAMIN">    -30.00000000</i>
   <i name="OMEGATL">   -200.00000000</i>
   <i type="int" name="OMEGAGRID">     0</i>
   <i name="CSHIFT">     -0.10000000</i>
   <i type="logical" name="LSELFENERGY"> F  </i>
   <i type="logical" name="LSPECTRAL"> F  </i>
   <i type="logical" name="LSPECTRALGW"> F  </i>
   <i type="logical" name="LSINGLES"> F  </i>
   <i type="logical" name="LFERMIGW"> F  </i>
   <i type="logical" name="ODDONLYGW"> F  </i>
   <i type="logical" name="EVENONLYGW"> F  </i>
   <i type="int" name="NKREDLFX">     1</i>
   <i type="int" name="NKREDLFY">     1</i>
   <i type="int" name="NKREDLFZ">     1</i>
   <i type="int" name="MAXMEM">  2800</i>
   <i type="int" name="TELESCOPE">     0</i>
   <i type="int" name="NTAUPAR">    -1</i>
   <i type="int" name="NOMEGAPAR">    -1</i>
   <i name="DAMP_NEWTON">      0.80000001</i>
   <i name="LAMBDA">      1.00000000</i>
  </separator>
  <separator name="External order field" >
   <i name="OFIELD_KAPPA">      0.00000000</i>
   <v name="OFIELD_K">      0.00000000      0.00000000      0.00000000</v>
   <i name="OFIELD_Q6_NEAR">      0.00000000</i>
   <i name="OFIELD_Q6_FAR">      0.00000000</i>
   <i name="OFIELD_A">      0.00000000</i>
  </separator>
 </parameters>
 <atominfo>
  <atoms>       8 </atoms>
  <types>       1 </types>
  <array name="atoms" >
   <dimension dim="1">ion</dimension>
   <field type="string">element</field>
   <field type="int">atomtype</field>
   <set>
    <rc><c>C </c><c>   1</c></rc>
    <rc><c>C </c><c>   1</c></rc>
    <rc><c>C </c><c>   1</c></rc>
    <rc><c>C </c><c>   1</c></rc>
    <rc><c>C </c><c>   1</c></rc>
    <rc><c>C </c><c>   1</c></rc>
    <rc><c>C </c><c>   1</c></rc>
    <rc><c>C </c><c>   1</c></rc>
   </set>
  </array>
  <array name="atomtypes" >
   <dimension dim="1">type</dimension>
   <field type="int">atomspertype</field>
   <field type="string">element</field>
   <field>mass</field>
   <field>valence</field>
   <field type="string">pseudopotential</field>
   <set>
    <rc><c>   8</c><c>C </c><c>     12.01100000</c><c>      4.00000000</c><c>  PAW_PBE C 08Apr2002                   </c></rc>
   </set>
  </array>
 </atominfo>
 <structure name="initialpos" >
  <crystal>
   <varray name="basis" >
    <v>       6.52418587       0.00000000       0.00000000 </v>
    <v>       3.26209293       4.24820353       0.00000000 </v>
    <v>       0.00000000       0.00000000      20.21746794 </v>
   </varray>
   <i name="volume">    560.34874575 </i>
   <varray name="rec_basis" >
    <v>       0.15327583      -0.11769681       0.00000000 </v>
    <v>       0.00000000       0.23539362       0.00000000 </v>
    <v>       0.00000000       0.00000000       0.04946218 </v>
   </varray>
  </crystal>
  <varray name="positions" >
   <v>       0.15396375       0.16211223       0.50204715 </v>
   <v>       0.34059494       0.33974858       0.50022858 </v>
   <v>       0.19042593       0.64896702       0.49990603 </v>
   <v>       0.32351906       0.85422030       0.49944323 </v>
   <v>       0.66387368       0.15080362       0.50114680 </v>
   <v>       0.82768540       0.34091675       0.49699100 </v>
   <v>       0.67745930       0.66579139       0.49996398 </v>
   <v>       0.81935532       0.84092908       0.49850540 </v>
  </varray>
  <varray name="selective"  type="logical" >
   <v type="logical" >  T  T  T </v>
   <v type="logical" >  T  T  T </v>
   <v type="logical" >  T  T  T </v>
   <v type="logical" >  T  T  T </v>
   <v type="logical" >  T  T  T </v>
   <v type="logical" >  T  T  T </v>
   <v type="logical" >  T  T  T </v>
   <v type="logical" >  T  T  T </v>
  </varray>
  <varray name="velocities" >
   <v>       0.00009771       0.00072668      -0.00004032 </v>
   <v>       0.00094228       0.00120361       0.00010103 </v>
   <v>       0.00068974      -0.00053871       0.00032858 </v>
   <v>      -0.00017881       0.00087497      -0.00031382 </v>
   <v>       0.00031109       0.00021163      -0.00030409 </v>
   <v>       0.00101666      -0.00065736      -0.00001925 </v>
   <v>      -0.00018105      -0.00188489       0.00017457 </v>
   <v>       0.00090818      -0.00051677      -0.00012480 </v>
  </varray>
  <nose>
   <v>       2.00000000       0.00010000     300.00000000     300.00000000 </v>
  </nose>
 </structure>
 <calculation>
  <scstep>
   <time name="dav">    0.62    0.62</time>
   <time name="total">    0.78    0.78</time>
   <energy>
    <i name="alphaZ">      9.38235316 </i>
    <i name="ewald">   3789.32085558 </i>
    <i name="hartreedc">  -4686.39533734 </i>
    <i name="XCdc">     99.45102524 </i>
    <i name="pawpsdc">    868.17637104 </i>
    <i name="pawaedc">   -872.73161751 </i>
    <i name="eentropy">     -0.00382205 </i>
    <i name="bandstr">   -108.62538752 </i>
    <i name="atom">   1177.20230207 </i>
    <i name="e_fr_energy">    275.77674266 </i>
    <i name="e_wo_entrp">    275.78056471 </i>
    <i name="e_0_energy">    275.77769817 </i>
   </energy>
  </scstep>
  <scstep>
   <time name="dav">    0.90    0.90</time>
   <time name="total">    0.90    0.90</time>
   <energy>
    <i name="e_fr_energy">     -8.09372690 </i>
    <i name="e_wo_entrp">     -8.09922799 </i>
    <i name="e_0_energy">     -8.09510217 </i>
   </energy>
  </scstep>
  <scstep>
   <time name="dav">    0.74    0.74</time>
   <time name="total">    0.74    0.74</time>
   <energy>
    <i name="e_fr_energy">    -62.14782995 </i>
    <i name="e_wo_entrp">    -62.15379124 </i>
    <i name="e_0_energy">    -62.14932027 </i>
   </energy>
  </scstep>
  <scstep>
   <time name="dav">    0.72    0.72</time>
   <time name="total">    0.72    0.72</time>
   <energy>
    <i name="e_fr_energy">    -64.46553700 </i>
    <i name="e_wo_entrp">    -64.47104419 </i>
    <i name="e_0_energy">    -64.46691380 </i>
   </energy>
  </scstep>
  <scstep>
   <time name="dav">    0.83    0.83</time>
   <time name="total">    0.90    0.90</time>
   <energy>
    <i name="e_fr_energy">    -64.56921757 </i>
    <i name="e_wo_entrp">    -64.57475324 </i>
    <i name="e_0_energy">    -64.57060149 </i>
   </energy>
  </scstep>
  <scstep>
   <time name="dav">    0.74    0.74</time>
   <time name="total">    0.97    0.97</time>
   <energy>
    <i name="e_fr_energy">    -62.20207339 </i>
    <i name="e_wo_entrp">    -62.20760091 </i>
    <i name="e_0_energy">    -62.20345527 </i>
   </energy>
  </scstep>
  <scstep>
   <time name="dav">    0.74    0.74</time>
   <time name="total">    0.97    0.97</time>
   <energy>
    <i name="e_fr_energy">    -61.51057386 </i>
    <i name="e_wo_entrp">    -61.51609362 </i>
    <i name="e_0_energy">    -61.51195380 </i>
   </energy>
  </scstep>
  <scstep>
   <time name="dav">    0.75    0.75</time>
   <time name="total">    0.97    0.97</time>
   <energy>
    <i name="e_fr_energy">    -61.51390022 </i>
    <i name="e_wo_entrp">    -61.51942758 </i>
    <i name="e_0_energy">    -61.51528206 </i>
   </energy>
  </scstep>
  <scstep>
   <time name="dav">    0.86    0.86</time>
   <time name="total">    1.08    1.08</time>
   <energy>
    <i name="e_fr_energy">    -61.51029946 </i>
    <i name="e_wo_entrp">    -61.51582395 </i>
    <i name="e_0_energy">    -61.51168058 </i>
   </energy>
  </scstep>
  <scstep>
   <time name="dav">    0.76    0.76</time>
   <time name="total">    0.99    0.99</time>
   <energy>
    <i name="e_fr_energy">    -61.50885148 </i>
    <i name="e_wo_entrp">    -61.51437456 </i>
    <i name="e_0_energy">    -61.51023225 </i>
   </energy>
  </scstep>
  <scstep>
   <time name="dav">    0.74    0.74</time>
   <time name="total">    0.96    0.96</time>
   <energy>
    <i name="e_fr_energy">    -61.50823501 </i>
    <i name="e_wo_entrp">    -61.51375878 </i>
    <i name="e_0_energy">    -61.50961595 </i>
   </energy>
  </scstep>
  <scstep>
   <time name="dav">    0.74    0.74</time>
   <time name="total">    0.96    0.96</time>
   <energy>
    <i name="e_fr_energy">    -61.50855408 </i>
    <i name="e_wo_entrp">    -61.51407776 </i>
    <i name="e_0_energy">    -61.50993500 </i>
   </energy>
  </scstep>
  <scstep>
   <time name="dav">    0.72    0.72</time>
   <time name="total">    0.95    0.95</time>
   <energy>
    <i name="e_fr_energy">    -61.51008868 </i>
    <i name="e_wo_entrp">    -61.51561223 </i>
    <i name="e_0_energy">    -61.51146957 </i>
   </energy>
  </scstep>
  <scstep>
   <time name="dav">    0.73    0.73</time>
   <time name="total">    0.96    0.96</time>
   <energy>
    <i name="e_fr_energy">    -61.51087394 </i>
    <i name="e_wo_entrp">    -61.51639750 </i>
    <i name="e_0_energy">    -61.51225483 </i>
   </energy>
  </scstep>
  <scstep>
   <time name="dav">    0.74    0.74</time>
   <time name="total">    0.97    0.97</time>
   <energy>
    <i name="e_fr_energy">    -61.51156099 </i>
    <i name="e_wo_entrp">    -61.51708451 </i>
    <i name="e_0_energy">    -61.51294187 </i>
   </energy>
  </scstep>
  <scstep>
   <time name="dav">    0.69    0.69</time>
   <time name="total">    0.92    0.92</time>
   <energy>
    <i name="e_fr_energy">    -61.51216086 </i>
    <i name="e_wo_entrp">    -61.51768441 </i>
    <i name="e_0_energy">    -61.51354175 </i>
   </energy>
  </scstep>
  <scstep>
   <time name="dav">    0.66    0.66</time>
   <time name="total">    0.90    0.90</time>
   <energy>
    <i name="e_fr_energy">    -61.51235643 </i>
    <i name="e_wo_entrp">    -61.51787999 </i>
    <i name="e_0_energy">    -61.51373732 </i>
   </energy>
  </scstep>
  <scstep>
   <time name="dav">    0.70    0.70</time>
   <time name="total">    0.93    0.93</time>
   <energy>
    <i name="e_fr_energy">    -61.51244127 </i>
    <i name="e_wo_entrp">    -61.51796482 </i>
    <i name="e_0_energy">    -61.51382216 </i>
   </energy>
  </scstep>
  <scstep>
   <time name="dav">    0.59    0.59</time>
   <time name="total">    0.82    0.82</time>
   <energy>
    <i name="e_fr_energy">    -61.51245730 </i>
    <i name="e_wo_entrp">    -61.51798085 </i>
    <i name="e_0_energy">    -61.51383819 </i>
   </energy>
  </scstep>
  <scstep>
   <time name="dav">    0.65    0.65</time>
   <time name="total">    0.88    0.88</time>
   <energy>
    <i name="e_fr_energy">    -61.51246857 </i>
    <i name="e_wo_entrp">    -61.51799212 </i>
    <i name="e_0_energy">    -61.51384946 </i>
   </energy>
  </scstep>
  <scstep>
   <time name="dav">    0.57    0.57</time>
   <time name="total">    0.80    0.80</time>
   <energy>
    <i name="e_fr_energy">    -61.51247407 </i>
    <i name="e_wo_entrp">    -61.51799762 </i>
    <i name="e_0_energy">    -61.51385496 </i>
   </energy>
  </scstep>
  <scstep>
   <time name="dav">    0.57    0.57</time>
   <time name="total">    0.80    0.80</time>
   <energy>
    <i name="e_fr_energy">    -61.51247661 </i>
    <i name="e_wo_entrp">    -61.51800016 </i>
    <i name="e_0_energy">    -61.51385750 </i>
   </energy>
  </scstep>
  <scstep>
   <time name="dav">    0.58    0.58</time>
   <time name="total">    0.81    0.81</time>
   <energy>
    <i name="e_fr_energy">    -61.51247832 </i>
    <i name="e_wo_entrp">    -61.51800187 </i>
    <i name="e_0_energy">    -61.51385921 </i>
   </energy>
  </scstep>
  <scstep>
   <time name="dav">    0.54    0.54</time>
   <time name="total">    0.71    0.71</time>
   <energy>
    <i name="alphaZ">      9.38235316 </i>
    <i name="ewald">   3789.32085558 </i>
    <i name="hartreedc">  -4763.87380247 </i>
    <i name="XCdc">    102.65461432 </i>
    <i name="pawpsdc">   2188.70399869 </i>
    <i name="pawaedc">  -2193.76507087 </i>
    <i name="eentropy">      0.00552355 </i>
    <i name="bandstr">   -371.14325290 </i>
    <i name="atom">   1177.20230207 </i>
    <i name="e_fr_energy">    -61.51247888 </i>
    <i name="e_wo_entrp">    -61.51800243 </i>
    <i name="e_0_energy">    -61.51385977 </i>
   </energy>
  </scstep>
  <structure>
   <crystal>
    <varray name="basis" >
     <v>       6.52418587       0.00000000       0.00000000 </v>
     <v>       3.26209293       4.24820353       0.00000000 </v>
     <v>       0.00000000       0.00000000      20.21746794 </v>
    </varray>
    <i name="volume">    560.34874575 </i>
    <varray name="rec_basis" >
     <v>       0.15327583      -0.11769681       0.00000000 </v>
     <v>       0.00000000       0.23539362       0.00000000 </v>
     <v>       0.00000000       0.00000000       0.04946218 </v>
    </varray>
   </crystal>
   <varray name="positions" >
    <v>       0.15396375       0.16211223       0.50204715 </v>
    <v>       0.34059494       0.33974858       0.50022858 </v>
    <v>       0.19042593       0.64896702       0.49990603 </v>
    <v>       0.32351906       0.85422030       0.49944323 </v>
    <v>       0.66387368       0.15080362       0.50114680 </v>
    <v>       0.82768540       0.34091675       0.49699100 </v>
    <v>       0.67745930       0.66579139       0.49996398 </v>
    <v>       0.81935532       0.84092908       0.49850540 </v>
   </varray>
  </structure>
  <varray name="forces" >
   <v>       0.14613037       1.97075101      -0.60928974 </v>
   <v>       0.13000632      -1.77974749       0.18491703 </v>
   <v>      -0.11458932       2.65959044      -0.17298933 </v>
   <v>      -0.18653303      -3.15847258       0.13496235 </v>
   <v>       0.38367185       2.78778360      -0.43174481 </v>
   <v>       0.55329507       0.58399619       0.95914526 </v>
   <v>      -0.68064747      -0.72316378      -0.37245538 </v>
   <v>      -0.23090272      -2.34147594       0.30773161 </v>
  </varray>
  <varray name="stress" >
   <v>    -172.65257780      -1.02766713      -0.02339450 </v>
   <v>      -1.02766712       2.25225142       0.57941187 </v>
   <v>      -0.02339450       0.57941188      -0.62096966 </v>
  </varray>
  <energy>
   <i name="e_fr_energy">    -62.09646897 </i>
   <i name="e_wo_entrp">    -62.10199252 </i>
   <i name="e_0_energy">    -62.09784986 </i>
   <i name="kinetic">      0.31385638 </i>
   <i name="lattice kinetic">      0.00000000 </i>
   <i name="nosepot">      0.00000000 </i>
   <i name="nosekinetic">      0.00000000 </i>
   <i name="total">    -61.78261260 </i>
  </energy>
  <time name="totalsc">   22.49   22.50</time>
 </calculation>
 <calculation>
  <scstep>
   <time name="dav">    0.62    0.62</time>
   <time name="total">    0.84    0.85</time>
   <energy>
    <i name="alphaZ">      9.38235316 </i>
    <i name="ewald">   3788.64894114 </i>
    <i name="hartreedc">  -4763.59885907 </i>
    <i name="XCdc">    102.63295220 </i>
    <i name="pawpsdc">   2188.70183107 </i>
    <i name="pawaedc">  -2193.76290411 </i>
    <i name="eentropy">      0.00564676 </i>
    <i name="bandstr">   -370.74089060 </i>
    <i name="atom">   1177.20230207 </i>
    <i name="e_fr_energy">    -61.52862740 </i>
    <i name="e_wo_entrp">    -61.53427415 </i>
    <i name="e_0_energy">    -61.53003909 </i>
   </energy>
  </scstep>
  <scstep>
   <time name="dav">    0.79    0.79</time>
   <time name="total">    1.01    1.01</time>
   <energy>
    <i name="e_fr_energy">    -61.52856984 </i>
    <i name="e_wo_entrp">    -61.53421253 </i>
    <i name="e_0_energy">    -61.52998051 </i>
   </energy>
  </scstep>
  <scstep>
   <time name="dav">    0.76    0.76</time>
   <time name="total">    0.99    0.99</time>
   <energy>
    <i name="e_fr_energy">    -61.52914981 </i>
    <i name="e_wo_entrp">    -61.53479123 </i>
    <i name="e_0_energy">    -61.53056016 </i>
   </energy>
  </scstep>
  <scstep>
   <time name="dav">    0.79    0.79</time>
   <time name="total">    1.02    1.02</time>
   <energy>
    <i name="e_fr_energy">    -61.52967743 </i>
    <i name="e_wo_entrp">    -61.53531920 </i>
    <i name="e_0_energy">    -61.53108787 </i>
   </energy>
  </scstep>
  <scstep>
   <time name="dav">    0.76    0.76</time>
   <time name="total">    0.98    0.98</time>
   <energy>
    <i name="e_fr_energy">    -61.52978013 </i>
    <i name="e_wo_entrp">    -61.53541883 </i>
    <i name="e_0_energy">    -61.53118980 </i>
   </energy>
  </scstep>
  <scstep>
   <time name="dav">    0.74    0.74</time>
   <time name="total">    0.97    0.97</time>
   <energy>
    <i name="e_fr_energy">    -61.52980556 </i>
    <i name="e_wo_entrp">    -61.53544485 </i>
    <i name="e_0_energy">    -61.53121538 </i>
   </energy>
  </scstep>
  <scstep>
   <time name="dav">    0.59    0.59</time>
   <time name="total">    0.81    0.81</time>
   <energy>
    <i name="e_fr_energy">    -61.52981030 </i>
    <i name="e_wo_entrp">    -61.53544988 </i>
    <i name="e_0_energy">    -61.53122020 </i>
   </energy>
  </scstep>
  <scstep>
   <time name="dav">    0.58    0.58</time>
   <time name="total">    0.81    0.81</time>
   <energy>
    <i name="e_fr_energy">    -61.52981516 </i>
    <i name="e_wo_entrp">    -61.53545479 </i>
    <i name="e_0_energy">    -61.53122507 </i>
   </energy>
  </scstep>
  <scstep>
   <time name="dav">    0.58    0.58</time>
   <time name="total">    0.81    0.81</time>
   <energy>
    <i name="e_fr_energy">    -61.52982233 </i>
    <i name="e_wo_entrp">    -61.53546192 </i>
    <i name="e_0_energy">    -61.53123223 </i>
   </energy>
  </scstep>
  <scstep>
   <time name="dav">    0.53    0.53</time>
   <time name="total">    0.76    0.76</time>
   <energy>
    <i name="e_fr_energy">    -61.52982357 </i>
    <i name="e_wo_entrp">    -61.53546315 </i>
    <i name="e_0_energy">    -61.53123346 </i>
   </energy>
  </scstep>
  <scstep>
   <time name="dav">    0.55    0.55</time>
   <time name="total">    0.71    0.71</time>
   <energy>
    <i name="alphaZ">      9.38235316 </i>
    <i name="ewald">   3788.64894114 </i>
    <i name="hartreedc">  -4763.29274442 </i>
    <i name="XCdc">    102.62057282 </i>
    <i name="pawpsdc">   2180.23570707 </i>
    <i name="pawaedc">  -2185.29250672 </i>
    <i name="eentropy">      0.00563959 </i>
    <i name="bandstr">   -371.04008863 </i>
    <i name="atom">   1177.20230207 </i>
    <i name="e_fr_energy">    -61.52982393 </i>
    <i name="e_wo_entrp">    -61.53546352 </i>
    <i name="e_0_energy">    -61.53123382 </i>
   </energy>
  </scstep>
  <structure>
   <crystal>
    <varray name="basis" >
     <v>       6.52418587       0.00000000       0.00000000 </v>
     <v>       3.26209293       4.24820353       0.00000000 </v>
     <v>       0.00000000       0.00000000      20.21746794 </v>
    </varray>
    <i name="volume">    560.34874575 </i>
    <varray name="rec_basis" >
     <v>       0.15327583      -0.11769681       0.00000000 </v>
     <v>       0.00000000       0.23539362       0.00000000 </v>
     <v>       0.00000000       0.00000000       0.04946218 </v>
    </varray>
   </crystal>
   <varray name="positions" >
    <v>       0.15480028       0.16080664       0.50187777 </v>
    <v>       0.34004062       0.33861601       0.50046109 </v>
    <v>       0.18918966       0.65134880       0.49975283 </v>
    <v>       0.32308916       0.85443999       0.49943952 </v>
    <v>       0.66515728       0.15006647       0.50079598 </v>
    <v>       0.82626930       0.34164427       0.49725128 </v>
    <v>       0.67783811       0.66642501       0.49998793 </v>
    <v>       0.82049301       0.84014171       0.49866578 </v>
   </varray>
  </structure>
  <varray name="forces" >
   <v>       0.18525331       2.48537469      -0.53070470 </v>
   <v>       0.19516917      -0.96406030       0.08808691 </v>
   <v>      -0.18362964       1.69546657      -0.11625794 </v>
   <v>      -0.21787067      -3.49962097       0.10471608 </v>
   <v>       0.32430933       2.92213912      -0.32135321 </v>
   <v>       0.59579196       0.50358994       0.86545067 </v>
   <v>      -0.72317881      -0.84550109      -0.34574396 </v>
   <v>      -0.17553689      -2.29808591       0.25613503 </v>
  </varray>
  <varray name="stress" >
   <v>    -173.51457077      -1.99816625      -0.03042238 </v>
   <v>      -1.99816625       0.87031044       0.56181221 </v>
   <v>      -0.03042237       0.56181221      -0.55412558 </v>
  </varray>
  <energy>
   <i name="e_fr_energy">    -62.11267426 </i>
   <i name="e_wo_entrp">    -62.11831385 </i>
   <i name="e_0_energy">    -62.11408416 </i>
   <i name="kinetic">      0.32634555 </i>
   <i name="lattice kinetic">      0.00000000 </i>
   <i name="nosepot">      0.00000066 </i>
   <i name="nosekinetic">      0.00000002 </i>
   <i name="total">    -61.78632804 </i>
  </energy>
  <time name="totalsc">   10.90   10.90</time>
 </calculation>
 <calculation>
  <scstep>
   <time name="dav">    0.63    0.63</time>
   <time name="total">    0.85    0.85</time>
   <energy>
    <i name="alphaZ">      9.38235316 </i>
    <i name="ewald">   3787.34562701 </i>
    <i name="hartreedc">  -4762.71959079 </i>
    <i name="XCdc">    102.58174348 </i>
    <i name="pawpsdc">   2180.23320786 </i>
    <i name="pawaedc">  -2185.29001065 </i>
    <i name="eentropy">      0.00581301 </i>
    <i name="bandstr">   -370.29738829 </i>
    <i name="atom">   1177.20230207 </i>
    <i name="e_fr_energy">    -61.55594314 </i>
    <i name="e_wo_entrp">    -61.56175615 </i>
    <i name="e_0_energy">    -61.55739639 </i>
   </energy>
  </scstep>
  <scstep>
   <time name="dav">    0.79    0.79</time>
   <time name="total">    1.02    1.02</time>
   <energy>
    <i name="e_fr_energy">    -61.55704739 </i>
    <i name="e_wo_entrp">    -61.56285559 </i>
    <i name="e_0_energy">    -61.55849944 </i>
   </energy>
  </scstep>
  <scstep>
   <time name="dav">    0.72    0.72</time>
   <time name="total">    0.95    0.95</time>
   <energy>
    <i name="e_fr_energy">    -61.55715355 </i>
    <i name="e_wo_entrp">    -61.56296167 </i>
    <i name="e_0_energy">    -61.55860558 </i>
   </energy>
  </scstep>
  <scstep>
   <time name="dav">    0.91    0.91</time>
   <time name="total">    1.14    1.14</time>
   <energy>
    <i name="e_fr_energy">    -61.55717164 </i>
    <i name="e_wo_entrp">    -61.56298123 </i>
    <i name="e_0_energy">    -61.55862403 </i>
   </energy>
  </scstep>
  <scstep>
   <time name="dav">    0.79    0.79</time>
   <time name="total">    1.02    1.02</time>
   <energy>
    <i name="e_fr_energy">    -61.55716223 </i>
    <i name="e_wo_entrp">    -61.56297151 </i>
    <i name="e_0_energy">    -61.55861455 </i>
   </energy>
  </scstep>
  <scstep>
   <time name="dav">    0.75    0.75</time>
   <time name="total">    0.98    0.98</time>
   <energy>
    <i name="e_fr_energy">    -61.55718899 </i>
    <i name="e_wo_entrp">    -61.56299916 </i>
    <i name="e_0_energy">    -61.55864153 </i>
   </energy>
  </scstep>
  <scstep>
   <time name="dav">    0.73    0.73</time>
   <time name="total">    0.97    0.97</time>
   <energy>
    <i name="e_fr_energy">    -61.55721135 </i>
    <i name="e_wo_entrp">    -61.56302160 </i>
    <i name="e_0_energy">    -61.55866391 </i>
   </energy>
  </scstep>
  <scstep>
   <time name="dav">    0.59    0.59</time>
   <time name="total">    0.84    0.84</time>
   <energy>
    <i name="e_fr_energy">    -61.55721511 </i>
    <i name="e_wo_entrp">    -61.56302519 </i>
    <i name="e_0_energy">    -61.55866763 </i>
   </energy>
  </scstep>
  <scstep>
   <time name="dav">    0.61    0.61</time>
   <time name="total">    0.85    0.85</time>
   <energy>
    <i name="e_fr_energy">    -61.55721813 </i>
    <i name="e_wo_entrp">    -61.56302812 </i>
    <i name="e_0_energy">    -61.55867063 </i>
   </energy>
  </scstep>
  <scstep>
   <time name="dav">    0.59    0.59</time>
   <time name="total">    0.75    0.75</time>
   <energy>
    <i name="alphaZ">      9.38235316 </i>
    <i name="ewald">   3787.34562701 </i>
    <i name="hartreedc">  -4762.13219138 </i>
    <i name="XCdc">    102.55707286 </i>
    <i name="pawpsdc">   2164.52180124 </i>
    <i name="pawaedc">  -2169.57038933 </i>
    <i name="eentropy">      0.00580996 </i>
    <i name="bandstr">   -370.86960467 </i>
    <i name="atom">   1177.20230207 </i>
    <i name="e_fr_energy">    -61.55721909 </i>
    <i name="e_wo_entrp">    -61.56302905 </i>
    <i name="e_0_energy">    -61.55867158 </i>
   </energy>
  </scstep>
  <structure>
   <crystal>
    <varray name="basis" >
     <v>       6.52418587       0.00000000       0.00000000 </v>
     <v>       3.26209293       4.24820353       0.00000000 </v>
     <v>       0.00000000       0.00000000      20.21746794 </v>
    </varray>
    <i name="volume">    560.34874575 </i>
    <varray name="rec_basis" >
     <v>       0.15327583      -0.11769681       0.00000000 </v>
     <v>       0.00000000       0.23539362       0.00000000 </v>
     <v>       0.00000000       0.00000000       0.04946218 </v>
    </varray>
   </crystal>
   <varray name="positions" >
    <v>       0.15542464       0.15997101       0.50168731 </v>
    <v>       0.33960148       0.33730114       0.50069709 </v>
    <v>       0.18777048       0.65405117       0.49959502 </v>
    <v>       0.32296332       0.85399794       0.49943997 </v>
    <v>       0.66620454       0.14988188       0.50043239 </v>
    <v>       0.82487896       0.34246700       0.49754594 </v>
    <v>       0.67820782       0.66689875       0.49999815 </v>
    <v>       0.82182636       0.83891980       0.49883633 </v>
   </varray>
  </structure>
  <varray name="forces" >
   <v>       0.25562013       2.71174144      -0.45429814 </v>
   <v>       0.26458112      -0.11415051      -0.02084260 </v>
   <v>      -0.25989143       0.68769724      -0.04763066 </v>
   <v>      -0.27919314      -3.54119307       0.08135884 </v>
   <v>       0.25193213       2.79117793      -0.20979316 </v>
   <v>       0.62995518       0.37046805       0.75739138 </v>
   <v>      -0.75771756      -0.91216342      -0.31100468 </v>
   <v>      -0.10474988      -1.99391424       0.20493268 </v>
  </varray>
  <varray name="stress" >
   <v>    -174.77658427      -2.90720407      -0.02509488 </v>
   <v>      -2.90720407      -1.90272168       0.50689988 </v>
   <v>      -0.02509489       0.50689987      -0.49677256 </v>
  </varray>
  <energy>
   <i name="e_fr_energy">    -62.13873166 </i>
   <i name="e_wo_entrp">    -62.14454162 </i>
   <i name="e_0_energy">    -62.14018415 </i>
   <i name="kinetic">      0.35209931 </i>
   <i name="lattice kinetic">      0.00000000 </i>
   <i name="nosepot">      0.00000414 </i>
   <i name="nosekinetic">      0.00000037 </i>
   <i name="total">    -61.78662785 </i>
  </energy>
  <time name="totalsc">   10.52   10.52</time>
 </calculation>
 <calculation>
  <scstep>
   <time name="dav">    0.63    0.63</time>
   <time name="total">    0.85    0.85</time>
   <energy>
    <i name="alphaZ">      9.38235316 </i>
    <i name="ewald">   3785.50720105 </i>
    <i name="hartreedc">  -4761.29396185 </i>
    <i name="XCdc">    102.50386076 </i>
    <i name="pawpsdc">   2164.52085822 </i>
    <i name="pawaedc">  -2169.56946264 </i>
    <i name="eentropy">      0.00598228 </i>
    <i name="bandstr">   -369.84685348 </i>
    <i name="atom">   1177.20230207 </i>
    <i name="e_fr_energy">    -61.58772045 </i>
    <i name="e_wo_entrp">    -61.59370273 </i>
    <i name="e_0_energy">    -61.58921602 </i>
   </energy>
  </scstep>
  <scstep>
   <time name="dav">    0.78    0.78</time>
   <time name="total">    1.03    1.03</time>
   <energy>
    <i name="e_fr_energy">    -61.58899708 </i>
    <i name="e_wo_entrp">    -61.59498040 </i>
    <i name="e_0_energy">    -61.59049291 </i>
   </energy>
  </scstep>
  <scstep>
   <time name="dav">    0.79    0.79</time>
   <time name="total">    1.04    1.04</time>
   <energy>
    <i name="e_fr_energy">    -61.58914023 </i>
    <i name="e_wo_entrp">    -61.59512370 </i>
    <i name="e_0_energy">    -61.59063610 </i>
   </energy>
  </scstep>
  <scstep>
   <time name="dav">    0.87    0.87</time>
   <time name="total">    1.13    1.13</time>
   <energy>
    <i name="e_fr_energy">    -61.58913507 </i>
    <i name="e_wo_entrp">    -61.59511872 </i>
    <i name="e_0_energy">    -61.59063098 </i>
   </energy>
  </scstep>
  <scstep>
   <time name="dav">    0.71    0.71</time>
   <time name="total">    0.95    0.95</time>
   <energy>
    <i name="e_fr_energy">    -61.58914329 </i>
    <i name="e_wo_entrp">    -61.59512708 </i>
    <i name="e_0_energy">    -61.59063923 </i>
   </energy>
  </scstep>
  <scstep>
   <time name="dav">    0.65    0.65</time>
   <time name="total">    0.89    0.89</time>
   <energy>
    <i name="e_fr_energy">    -61.58915232 </i>
    <i name="e_wo_entrp">    -61.59513608 </i>
    <i name="e_0_energy">    -61.59064826 </i>
   </energy>
  </scstep>
  <scstep>
   <time name="dav">    0.57    0.57</time>
   <time name="total">    0.73    0.73</time>
   <energy>
    <i name="alphaZ">      9.38235316 </i>
    <i name="ewald">   3785.50720105 </i>
    <i name="hartreedc">  -4760.47667710 </i>
    <i name="XCdc">    102.46914515 </i>
    <i name="pawpsdc">   2142.58397406 </i>
    <i name="pawaedc">  -2147.62119303 </i>
    <i name="eentropy">      0.00598372 </i>
    <i name="bandstr">   -370.64224117 </i>
    <i name="atom">   1177.20230207 </i>
    <i name="e_fr_energy">    -61.58915210 </i>
    <i name="e_wo_entrp">    -61.59513582 </i>
    <i name="e_0_energy">    -61.59064803 </i>
   </energy>
  </scstep>
  <structure>
   <crystal>
    <varray name="basis" >
     <v>       6.52418587       0.00000000       0.00000000 </v>
     <v>       3.26209293       4.24820353       0.00000000 </v>
     <v>       0.00000000       0.00000000      20.21746794 </v>
    </varray>
    <i name="volume">    560.34874575 </i>
    <varray name="rec_basis" >
     <v>       0.15327583      -0.11769681       0.00000000 </v>
     <v>       0.00000000       0.23539362       0.00000000 </v>
     <v>       0.00000000       0.00000000       0.04946218 </v>
    </varray>
   </crystal>
   <varray name="positions" >
    <v>       0.15582408       0.15964817       0.50147879 </v>
    <v>       0.33920571       0.33596470       0.50093226 </v>
    <v>       0.18625430       0.65688356       0.49943531 </v>
    <v>       0.32313791       0.85288627       0.49944365 </v>
    <v>       0.66701892       0.15022508       0.50006046 </v>
    <v>       0.82353117       0.34335979       0.49787070 </v>
    <v>       0.67857046       0.66720000       0.49999602 </v>
    <v>       0.82333531       0.83732086       0.49901503 </v>
   </varray>
  </structure>
  <varray name="forces" >
   <v>       0.34969515       2.62055506      -0.38103209 </v>
   <v>       0.33353607       0.67389149      -0.13748236 </v>
   <v>      -0.33705458      -0.26819340       0.02955702 </v>
   <v>      -0.36392590      -3.25721840       0.06524063 </v>
   <v>       0.16971881       2.42959506      -0.09392066 </v>
   <v>       0.65711576       0.18931008       0.63776267 </v>
   <v>      -0.78370368      -0.92301261      -0.27031131 </v>
   <v>      -0.02548830      -1.46506871       0.15018794 </v>
  </varray>
  <varray name="stress" >
   <v>    -176.37184051      -3.73979544      -0.00803880 </v>
   <v>      -3.73979546      -5.77996036       0.44049098 </v>
   <v>      -0.00803882       0.44049097      -0.45418157 </v>
  </varray>
  <energy>
   <i name="e_fr_energy">    -62.16924420 </i>
   <i name="e_wo_entrp">    -62.17522793 </i>
   <i name="e_0_energy">    -62.17074013 </i>
   <i name="kinetic">      0.38210614 </i>
   <i name="lattice kinetic">      0.00000000 </i>
   <i name="nosepot">      0.00001401 </i>
   <i name="nosekinetic">      0.00000228 </i>
   <i name="total">    -61.78712178 </i>
  </energy>
  <time name="totalsc">    7.76    7.76</time>
 </calculation>
 <calculation>
  <scstep>
   <time name="dav">    0.61    0.61</time>
   <time name="total">    0.84    0.84</time>
   <energy>
    <i name="alphaZ">      9.38235316 </i>
    <i name="ewald">   3783.28860713 </i>
    <i name="hartreedc">  -4759.43535424 </i>
    <i name="XCdc">    102.40575902 </i>
    <i name="pawpsdc">   2142.80507556 </i>
    <i name="pawaedc">  -2147.84227736 </i>
    <i name="eentropy">      0.00613347 </i>
    <i name="bandstr">   -369.42797922 </i>
    <i name="atom">   1177.20230207 </i>
    <i name="e_fr_energy">    -61.61538040 </i>
    <i name="e_wo_entrp">    -61.62151387 </i>
    <i name="e_0_energy">    -61.61691377 </i>
   </energy>
  </scstep>
  <scstep>
   <time name="dav">    0.79    0.79</time>
   <time name="total">    1.04    1.04</time>
   <energy>
    <i name="e_fr_energy">    -61.61684470 </i>
    <i name="e_wo_entrp">    -61.62298097 </i>
    <i name="e_0_energy">    -61.61837877 </i>
   </energy>
  </scstep>
  <scstep>
   <time name="dav">    0.75    0.75</time>
   <time name="total">    0.99    0.99</time>
   <energy>
    <i name="e_fr_energy">    -61.61699265 </i>
    <i name="e_wo_entrp">    -61.62312850 </i>
    <i name="e_0_energy">    -61.61852661 </i>
   </energy>
  </scstep>
  <scstep>
   <time name="dav">    0.88    0.88</time>
   <time name="total">    1.13    1.13</time>
   <energy>
    <i name="e_fr_energy">    -61.61699945 </i>
    <i name="e_wo_entrp">    -61.62313550 </i>
    <i name="e_0_energy">    -61.61853346 </i>
   </energy>
  </scstep>
  <scstep>
   <time name="dav">    0.60    0.60</time>
   <time name="total">    0.85    0.85</time>
   <energy>
    <i name="e_fr_energy">    -61.61700126 </i>
    <i name="e_wo_entrp">    -61.62313729 </i>
    <i name="e_0_energy">    -61.61853527 </i>
   </energy>
  </scstep>
  <scstep>
   <time name="dav">    0.58    0.58</time>
   <time name="total">    0.74    0.74</time>
   <energy>
    <i name="alphaZ">      9.38235316 </i>
    <i name="ewald">   3783.28860713 </i>
    <i name="hartreedc">  -4758.46291344 </i>
    <i name="XCdc">    102.36432390 </i>
    <i name="pawpsdc">   2117.02580605 </i>
    <i name="pawaedc">  -2122.04958210 </i>
    <i name="eentropy">      0.00613601 </i>
    <i name="bandstr">   -370.37403448 </i>
    <i name="atom">   1177.20230207 </i>
    <i name="e_fr_energy">    -61.61700172 </i>
    <i name="e_wo_entrp">    -61.62313773 </i>
    <i name="e_0_energy">    -61.61853572 </i>
   </energy>
  </scstep>
  <structure>
   <crystal>
    <varray name="basis" >
     <v>       6.52418587       0.00000000       0.00000000 </v>
     <v>       3.26209293       4.24820353       0.00000000 </v>
     <v>       0.00000000       0.00000000      20.21746794 </v>
    </varray>
    <i name="volume">    560.34874575 </i>
    <varray name="rec_basis" >
     <v>       0.15327583      -0.11769681       0.00000000 </v>
     <v>       0.00000000       0.23539362       0.00000000 </v>
     <v>       0.00000000       0.00000000       0.04946218 </v>
    </varray>
   </crystal>
   <varray name="positions" >
    <v>       0.15601880       0.15982086       0.50125515 </v>
    <v>       0.33878730       0.33475572       0.50116196 </v>
    <v>       0.18472200       0.65966516       0.49927678 </v>
    <v>       0.32357565       0.85115871       0.49944992 </v>
    <v>       0.66762446       0.15102770       0.49968482 </v>
    <v>       0.82224641       0.34428835       0.49822079 </v>
    <v>       0.67892388       0.66732671       0.49998314 </v>
    <v>       0.82497962       0.83544492       0.49919969 </v>
   </varray>
  </structure>
  <varray name="forces" >
   <v>       0.45555159       2.23991760      -0.30971822 </v>
   <v>       0.39705614       1.33783974      -0.25654863 </v>
   <v>      -0.40894342      -1.10995583       0.11088497 </v>
   <v>      -0.45977570      -2.67809798       0.05416969 </v>
   <v>       0.08219690       1.90123317       0.02850230 </v>
   <v>       0.67887251      -0.03387986       0.50947447 </v>
   <v>      -0.79978679      -0.87884518      -0.22585970 </v>
   <v>       0.05487236      -0.77819947       0.08868687 </v>
  </varray>
  <varray name="stress" >
   <v>    -178.19284761      -4.49549897       0.01840764 </v>
   <v>      -4.49549897     -10.33724534       0.38856984 </v>
   <v>       0.01840763       0.38856984      -0.42331554 </v>
  </varray>
  <energy>
   <i name="e_fr_energy">    -62.19570416 </i>
   <i name="e_wo_entrp">    -62.20184017 </i>
   <i name="e_0_energy">    -62.19723816 </i>
   <i name="kinetic">      0.40801677 </i>
   <i name="lattice kinetic">      0.00000000 </i>
   <i name="nosepot">      0.00003440 </i>
   <i name="nosekinetic">      0.00000817 </i>
   <i name="total">    -61.78764483 </i>
  </energy>
  <time name="totalsc">    6.73    6.73</time>
 </calculation>
 <calculation>
  <scstep>
   <time name="dav">    0.63    0.63</time>
   <time name="total">    0.86    0.86</time>
   <energy>
    <i name="alphaZ">      9.38235316 </i>
    <i name="ewald">   3780.88013096 </i>
    <i name="hartreedc">  -4757.29949929 </i>
    <i name="XCdc">    102.29588951 </i>
    <i name="pawpsdc">   2117.13016171 </i>
    <i name="pawaedc">  -2122.15394451 </i>
    <i name="eentropy">      0.00625530 </i>
    <i name="bandstr">   -369.07363499 </i>
    <i name="atom">   1177.20230207 </i>
    <i name="e_fr_energy">    -61.62998609 </i>
    <i name="e_wo_entrp">    -61.63624139 </i>
    <i name="e_0_energy">    -61.63154991 </i>
   </energy>
  </scstep>
  <scstep>
   <time name="dav">    0.78    0.78</time>
   <time name="total">    1.03    1.03</time>
   <energy>
    <i name="e_fr_energy">    -61.63158854 </i>
    <i name="e_wo_entrp">    -61.63784506 </i>
    <i name="e_0_energy">    -61.63315267 </i>
   </energy>
  </scstep>
  <scstep>
   <time name="dav">    0.72    0.72</time>
   <time name="total">    0.97    0.97</time>
   <energy>
    <i name="e_fr_energy">    -61.63173200 </i>
    <i name="e_wo_entrp">    -61.63798812 </i>
    <i name="e_0_energy">    -61.63329603 </i>
   </energy>
  </scstep>
  <scstep>
   <time name="dav">    0.86    0.87</time>
   <time name="total">    1.10    1.11</time>
   <energy>
    <i name="e_fr_energy">    -61.63174147 </i>
    <i name="e_wo_entrp">    -61.63799761 </i>
    <i name="e_0_energy">    -61.63330551 </i>
   </energy>
  </scstep>
  <scstep>
   <time name="dav">    0.60    0.60</time>
   <time name="total">    0.84    0.84</time>
   <energy>
    <i name="e_fr_energy">    -61.63174252 </i>
    <i name="e_wo_entrp">    -61.63799869 </i>
    <i name="e_0_energy">    -61.63330656 </i>
   </energy>
  </scstep>
  <scstep>
   <time name="dav">    0.59    0.59</time>
   <time name="total">    0.75    0.75</time>
   <energy>
    <i name="alphaZ">      9.38235316 </i>
    <i name="ewald">   3780.88013096 </i>
    <i name="hartreedc">  -4756.26685592 </i>
    <i name="XCdc">    102.25164194 </i>
    <i name="pawpsdc">   2090.19576782 </i>
    <i name="pawaedc">  -2095.20524105 </i>
    <i name="eentropy">      0.00625619 </i>
    <i name="bandstr">   -370.07809802 </i>
    <i name="atom">   1177.20230207 </i>
    <i name="e_fr_energy">    -61.63174286 </i>
    <i name="e_wo_entrp">    -61.63799905 </i>
    <i name="e_0_energy">    -61.63330691 </i>
   </energy>
  </scstep>
  <structure>
   <crystal>
    <varray name="basis" >
     <v>       6.52418587       0.00000000       0.00000000 </v>
     <v>       3.26209293       4.24820353       0.00000000 </v>
     <v>       0.00000000       0.00000000      20.21746794 </v>
    </varray>
    <i name="volume">    560.34874575 </i>
    <varray name="rec_basis" >
     <v>       0.15327583      -0.11769681       0.00000000 </v>
     <v>       0.00000000       0.23539362       0.00000000 </v>
     <v>       0.00000000       0.00000000       0.04946218 </v>
    </varray>
   </crystal>
   <varray name="positions" >
    <v>       0.15605783       0.16041708       0.50101920 </v>
    <v>       0.33829132       0.33379976       0.50138146 </v>
    <v>       0.18324437       0.66223677       0.49912266 </v>
    <v>       0.32420996       0.84892483       0.49945834 </v>
    <v>       0.66806034       0.15218978       0.49931032 </v>
    <v>       0.82104851       0.34521046       0.49859111 </v>
    <v>       0.67926189       0.66728724       0.49996129 </v>
    <v>       0.82670418       0.83342191       0.49938787 </v>
   </varray>
  </structure>
  <varray name="forces" >
   <v>       0.55870560       1.64653997      -0.23780916 </v>
   <v>       0.45012180       1.84670742      -0.37271939 </v>
   <v>      -0.47106720      -1.80313499       0.19188185 </v>
   <v>      -0.55257421      -1.88477680       0.04487991 </v>
   <v>      -0.00532697       1.28571483       0.15785332 </v>
   <v>       0.69621450      -0.28586072       0.37607211 </v>
   <v>      -0.80511126      -0.78801915      -0.17985257 </v>
   <v>       0.12902106      -0.01718674       0.01939516 </v>
  </varray>
  <varray name="stress" >
   <v>    -180.11697643      -5.19025315       0.05085224 </v>
   <v>      -5.19025315     -15.07765808       0.36914300 </v>
   <v>       0.05085225       0.36914300      -0.41380064 </v>
  </varray>
  <energy>
   <i name="e_fr_energy">    -62.20917341 </i>
   <i name="e_wo_entrp">    -62.21542960 </i>
   <i name="e_0_energy">    -62.21073746 </i>
   <i name="kinetic">      0.42112634 </i>
   <i name="lattice kinetic">      0.00000000 </i>
   <i name="nosepot">      0.00006886 </i>
   <i name="nosekinetic">      0.00002044 </i>
   <i name="total">    -61.78795776 </i>
  </energy>
  <time name="totalsc">    6.72    6.72</time>
 </calculation>
 <calculation>
  <scstep>
   <time name="dav">    0.62    0.62</time>
   <time name="total">    0.85    0.85</time>
   <energy>
    <i name="alphaZ">      9.38235316 </i>
    <i name="ewald">   3778.47697720 </i>
    <i name="hartreedc">  -4755.06759437 </i>
    <i name="XCdc">    102.18342052 </i>
    <i name="pawpsdc">   2090.18000015 </i>
    <i name="pawaedc">  -2095.18947227 </i>
    <i name="eentropy">      0.00633109 </i>
    <i name="bandstr">   -368.80017595 </i>
    <i name="atom">   1177.20230207 </i>
    <i name="e_fr_energy">    -61.62585840 </i>
    <i name="e_wo_entrp">    -61.63218949 </i>
    <i name="e_0_energy">    -61.62744117 </i>
   </energy>
  </scstep>
  <scstep>
   <time name="dav">    0.79    0.79</time>
   <time name="total">    1.04    1.04</time>
   <energy>
    <i name="e_fr_energy">    -61.62747318 </i>
    <i name="e_wo_entrp">    -61.63380394 </i>
    <i name="e_0_energy">    -61.62905587 </i>
   </energy>
  </scstep>
  <scstep>
   <time name="dav">    0.76    0.76</time>
   <time name="total">    1.00    1.00</time>
   <energy>
    <i name="e_fr_energy">    -61.62763643 </i>
    <i name="e_wo_entrp">    -61.63396704 </i>
    <i name="e_0_energy">    -61.62921909 </i>
   </energy>
  </scstep>
  <scstep>
   <time name="dav">    0.86    0.86</time>
   <time name="total">    1.11    1.11</time>
   <energy>
    <i name="e_fr_energy">    -61.62764598 </i>
    <i name="e_wo_entrp">    -61.63397662 </i>
    <i name="e_0_energy">    -61.62922864 </i>
   </energy>
  </scstep>
  <scstep>
   <time name="dav">    0.59    0.59</time>
   <time name="total">    0.84    0.84</time>
   <energy>
    <i name="e_fr_energy">    -61.62765157 </i>
    <i name="e_wo_entrp">    -61.63398222 </i>
    <i name="e_0_energy">    -61.62923423 </i>
   </energy>
  </scstep>
  <scstep>
   <time name="dav">    0.58    0.58</time>
   <time name="total">    0.82    0.82</time>
   <energy>
    <i name="e_fr_energy">    -61.62765303 </i>
    <i name="e_wo_entrp">    -61.63398370 </i>
    <i name="e_0_energy">    -61.62923570 </i>
   </energy>
  </scstep>
  <scstep>
   <time name="dav">    0.58    0.58</time>
   <time name="total">    0.74    0.74</time>
   <energy>
    <i name="alphaZ">      9.38235316 </i>
    <i name="ewald">   3778.47697720 </i>
    <i name="hartreedc">  -4754.04048982 </i>
    <i name="XCdc">    102.13982800 </i>
    <i name="pawpsdc">   2063.91450221 </i>
    <i name="pawaedc">  -2068.91013382 </i>
    <i name="eentropy">      0.00633067 </i>
    <i name="bandstr">   -369.79932248 </i>
    <i name="atom">   1177.20230207 </i>
    <i name="e_fr_energy">    -61.62765282 </i>
    <i name="e_wo_entrp">    -61.63398349 </i>
    <i name="e_0_energy">    -61.62923549 </i>
   </energy>
  </scstep>
  <structure>
   <crystal>
    <varray name="basis" >
     <v>       6.52418587       0.00000000       0.00000000 </v>
     <v>       3.26209293       4.24820353       0.00000000 </v>
     <v>       0.00000000       0.00000000      20.21746794 </v>
    </varray>
    <i name="volume">    560.34874575 </i>
    <varray name="rec_basis" >
     <v>       0.15327583      -0.11769681       0.00000000 </v>
     <v>       0.00000000       0.23539362       0.00000000 </v>
     <v>       0.00000000       0.00000000       0.04946218 </v>
    </varray>
   </crystal>
   <varray name="positions" >
    <v>       0.15600998       0.16132461       0.50077383 </v>
    <v>       0.33767619       0.33319306       0.50158613 </v>
    <v>       0.18187930       0.66446726       0.49897618 </v>
    <v>       0.32495438       0.84633472       0.49946855 </v>
    <v>       0.66837399       0.15359489       0.49894212 </v>
    <v>       0.81996343       0.34607846       0.49897634 </v>
    <v>       0.67957526       0.66709877       0.49993229 </v>
    <v>       0.82844613       0.83139580       0.49957680 </v>
   </varray>
  </structure>
  <varray name="forces" >
   <v>       0.64566632       0.93598410      -0.16340533 </v>
   <v>       0.48942164       2.19024396      -0.48151674 </v>
   <v>      -0.52098981      -2.33291597       0.26846867 </v>
   <v>      -0.62823803      -0.97717966       0.03426755 </v>
   <v>      -0.08690300       0.65473139       0.29192222 </v>
   <v>       0.70966552      -0.55172990       0.24054827 </v>
   <v>      -0.79901845      -0.66028831      -0.13441794 </v>
   <v>       0.19053932       0.74099934      -0.05641554 </v>
  </varray>
  <varray name="stress" >
   <v>    -182.00732958      -5.84141382       0.08564931 </v>
   <v>      -5.84141382     -19.55384500       0.38844734 </v>
   <v>       0.08564931       0.38844735      -0.41221118 </v>
  </varray>
  <energy>
   <i name="e_fr_energy">    -62.20398169 </i>
   <i name="e_wo_entrp">    -62.21031237 </i>
   <i name="e_0_energy">    -62.20556436 </i>
   <i name="kinetic">      0.41591798 </i>
   <i name="lattice kinetic">      0.00000000 </i>
   <i name="nosepot">      0.00011918 </i>
   <i name="nosekinetic">      0.00003908 </i>
   <i name="total">    -61.78790546 </i>
  </energy>
  <time name="totalsc">    7.54    7.54</time>
 </calculation>
 <calculation>
  <scstep>
   <time name="dav">    0.62    0.62</time>
   <time name="total">    0.84    0.84</time>
   <energy>
    <i name="alphaZ">      9.38235316 </i>
    <i name="ewald">   3776.25241961 </i>
    <i name="hartreedc">  -4752.90167367 </i>
    <i name="XCdc">    102.07677872 </i>
    <i name="pawpsdc">   2063.98075413 </i>
    <i name="pawaedc">  -2068.97638239 </i>
    <i name="eentropy">      0.00633350 </i>
    <i name="bandstr">   -368.62586342 </i>
    <i name="atom">   1177.20230207 </i>
    <i name="e_fr_energy">    -61.60297830 </i>
    <i name="e_wo_entrp">    -61.60931181 </i>
    <i name="e_0_energy">    -61.60456168 </i>
   </energy>
  </scstep>
  <scstep>
   <time name="dav">    0.74    0.74</time>
   <time name="total">    0.98    0.98</time>
   <energy>
    <i name="e_fr_energy">    -61.60452138 </i>
    <i name="e_wo_entrp">    -61.61085607 </i>
    <i name="e_0_energy">    -61.60610506 </i>
   </energy>
  </scstep>
  <scstep>
   <time name="dav">    0.76    0.76</time>
   <time name="total">    1.01    1.01</time>
   <energy>
    <i name="e_fr_energy">    -61.60472184 </i>
    <i name="e_wo_entrp">    -61.61105655 </i>
    <i name="e_0_energy">    -61.60630552 </i>
   </energy>
  </scstep>
  <scstep>
   <time name="dav">    0.89    0.89</time>
   <time name="total">    1.15    1.15</time>
   <energy>
    <i name="e_fr_energy">    -61.60473601 </i>
    <i name="e_wo_entrp">    -61.61107067 </i>
    <i name="e_0_energy">    -61.60631968 </i>
   </energy>
  </scstep>
  <scstep>
   <time name="dav">    0.71    0.71</time>
   <time name="total">    0.88    0.88</time>
   <energy>
    <i name="alphaZ">      9.38235316 </i>
    <i name="ewald">   3776.25241961 </i>
    <i name="hartreedc">  -4751.98027553 </i>
    <i name="XCdc">    102.03731162 </i>
    <i name="pawpsdc">   2040.52856940 </i>
    <i name="pawaedc">  -2045.51179513 </i>
    <i name="eentropy">      0.00633466 </i>
    <i name="bandstr">   -369.52195605 </i>
    <i name="atom">   1177.20230207 </i>
    <i name="e_fr_energy">    -61.60473620 </i>
    <i name="e_wo_entrp">    -61.61107085 </i>
    <i name="e_0_energy">    -61.60631986 </i>
   </energy>
  </scstep>
  <structure>
   <crystal>
    <varray name="basis" >
     <v>       6.52418587       0.00000000       0.00000000 </v>
     <v>       3.26209293       4.24820353       0.00000000 </v>
     <v>       0.00000000       0.00000000      20.21746794 </v>
    </varray>
    <i name="volume">    560.34874575 </i>
    <varray name="rec_basis" >
     <v>       0.15327583      -0.11769681       0.00000000 </v>
     <v>       0.00000000       0.23539362       0.00000000 </v>
     <v>       0.00000000       0.00000000       0.04946218 </v>
    </varray>
   </crystal>
   <varray name="positions" >
    <v>       0.15595314       0.16240903       0.50052198 </v>
    <v>       0.33691431       0.33300055       0.50177165 </v>
    <v>       0.18067078       0.66625641       0.49884038 </v>
    <v>       0.32571376       0.84356007       0.49948012 </v>
    <v>       0.66861500       0.15512367       0.49858555 </v>
    <v>       0.81901798       0.34684205       0.49937110 </v>
    <v>       0.67985264       0.66678546       0.49989796 </v>
    <v>       0.83014132       0.82950998       0.49976347 </v>
   </varray>
  </structure>
  <varray name="forces" >
   <v>       0.70526545       0.20299920      -0.08519980 </v>
   <v>       0.51265128       2.37210480      -0.57945846 </v>
   <v>      -0.55852268      -2.69675631       0.33770043 </v>
   <v>      -0.67541831      -0.05467323       0.02058432 </v>
   <v>      -0.15657930       0.06326863       0.42734978 </v>
   <v>       0.71999455      -0.81300181       0.10553024 </v>
   <v>      -0.78234034      -0.50981977      -0.09114691 </v>
   <v>       0.23492991       1.43570859      -0.13594326 </v>
  </varray>
  <varray name="stress" >
   <v>    -183.73457640      -6.46367560       0.11945116 </v>
   <v>      -6.46367559     -23.41968267       0.44118482 </v>
   <v>       0.11945116       0.44118482      -0.43154880 </v>
  </varray>
  <energy>
   <i name="e_fr_energy">    -62.18015724 </i>
   <i name="e_wo_entrp">    -62.18649190 </i>
   <i name="e_0_energy">    -62.18174091 </i>
   <i name="kinetic">      0.39241681 </i>
   <i name="lattice kinetic">      0.00000000 </i>
   <i name="nosepot">      0.00018459 </i>
   <i name="nosekinetic">      0.00006013 </i>
   <i name="total">    -61.78749571 </i>
  </energy>
  <time name="totalsc">    6.01    6.01</time>
 </calculation>
 <calculation>
  <scstep>
   <time name="dav">    0.70    0.70</time>
   <time name="total">    0.94    0.94</time>
   <energy>
    <i name="alphaZ">      9.38235316 </i>
    <i name="ewald">   3774.34145111 </i>
    <i name="hartreedc">  -4750.97103742 </i>
    <i name="XCdc">    101.98336978 </i>
    <i name="pawpsdc">   2040.42487695 </i>
    <i name="pawaedc">  -2045.40808954 </i>
    <i name="eentropy">      0.00623248 </i>
    <i name="bandstr">   -368.52852810 </i>
    <i name="atom">   1177.20230207 </i>
    <i name="e_fr_energy">    -61.56706951 </i>
    <i name="e_wo_entrp">    -61.57330199 </i>
    <i name="e_0_energy">    -61.56862763 </i>
   </energy>
  </scstep>
  <scstep>
   <time name="dav">    0.80    0.80</time>
   <time name="total">    1.05    1.05</time>
   <energy>
    <i name="e_fr_energy">    -61.56854048 </i>
    <i name="e_wo_entrp">    -61.57477910 </i>
    <i name="e_0_energy">    -61.57010014 </i>
   </energy>
  </scstep>
  <scstep>
   <time name="dav">    0.81    0.81</time>
   <time name="total">    1.05    1.05</time>
   <energy>
    <i name="e_fr_energy">    -61.56871920 </i>
    <i name="e_wo_entrp">    -61.57495760 </i>
    <i name="e_0_energy">    -61.57027880 </i>
   </energy>
  </scstep>
  <scstep>
   <time name="dav">    0.87    0.87</time>
   <time name="total">    1.11    1.11</time>
   <energy>
    <i name="e_fr_energy">    -61.56872694 </i>
    <i name="e_wo_entrp">    -61.57496526 </i>
    <i name="e_0_energy">    -61.57028652 </i>
   </energy>
  </scstep>
  <scstep>
   <time name="dav">    0.62    0.62</time>
   <time name="total">    0.79    0.79</time>
   <energy>
    <i name="alphaZ">      9.38235316 </i>
    <i name="ewald">   3774.34145111 </i>
    <i name="hartreedc">  -4750.21154285 </i>
    <i name="XCdc">    101.95056072 </i>
    <i name="pawpsdc">   2020.65579496 </i>
    <i name="pawaedc">  -2025.62873096 </i>
    <i name="eentropy">      0.00623831 </i>
    <i name="bandstr">   -369.26715298 </i>
    <i name="atom">   1177.20230207 </i>
    <i name="e_fr_energy">    -61.56872645 </i>
    <i name="e_wo_entrp">    -61.57496477 </i>
    <i name="e_0_energy">    -61.57028603 </i>
   </energy>
  </scstep>
  <structure>
   <crystal>
    <varray name="basis" >
     <v>       6.52418587       0.00000000       0.00000000 </v>
     <v>       3.26209293       4.24820353       0.00000000 </v>
     <v>       0.00000000       0.00000000      20.21746794 </v>
    </varray>
    <i name="volume">    560.34874575 </i>
    <varray name="rec_basis" >
     <v>       0.15327583      -0.11769681       0.00000000 </v>
     <v>       0.00000000       0.23539362       0.00000000 </v>
     <v>       0.00000000       0.00000000       0.04946218 </v>
    </varray>
   </crystal>
   <varray name="positions" >
    <v>       0.15596394       0.16353170       0.50026678 </v>
    <v>       0.33599137       0.33325659       0.50193413 </v>
    <v>       0.17964860       0.66753545       0.49871801 </v>
    <v>       0.32639507       0.84077542       0.49949250 </v>
    <v>       0.66883073       0.15666423       0.49824600 </v>
    <v>       0.81823816       0.34745183       0.49977000 </v>
    <v>       0.68008187       0.66637579       0.49986001 </v>
    <v>       0.83172951       0.82789586       0.49994473 </v>
   </varray>
  </structure>
  <varray name="forces" >
   <v>       0.73133596      -0.48239300      -0.00353045 </v>
   <v>       0.51896562       2.40013080      -0.66406705 </v>
   <v>      -0.58438905      -2.89568482       0.39742700 </v>
   <v>      -0.68680179       0.80731428       0.00326751 </v>
   <v>      -0.20953375      -0.45346993       0.56009441 </v>
   <v>       0.72777064      -1.05010698      -0.02683066 </v>
   <v>      -0.75647099      -0.35238176      -0.05091065 </v>
   <v>       0.25911842       2.02620219      -0.21589267 </v>
  </varray>
  <varray name="stress" >
   <v>    -185.17566797      -7.06254642       0.14958261 </v>
   <v>      -7.06254641     -26.48760749       0.51082455 </v>
   <v>       0.14958261       0.51082456      -0.46846659 </v>
  </varray>
  <energy>
   <i name="e_fr_energy">    -62.14343919 </i>
   <i name="e_wo_entrp">    -62.14967750 </i>
   <i name="e_0_energy">    -62.14499876 </i>
   <i name="kinetic">      0.35622835 </i>
   <i name="lattice kinetic">      0.00000000 </i>
   <i name="nosepot">      0.00026184 </i>
   <i name="nosekinetic">      0.00007717 </i>
   <i name="total">    -61.78687182 </i>
  </energy>
  <time name="totalsc">    6.07    6.07</time>
 </calculation>
 <calculation>
  <scstep>
   <time name="dav">    0.61    0.61</time>
   <time name="total">    0.84    0.84</time>
   <energy>
    <i name="alphaZ">      9.38235316 </i>
    <i name="ewald">   3772.83700073 </i>
    <i name="hartreedc">  -4749.37582974 </i>
    <i name="XCdc">    101.90856064 </i>
    <i name="pawpsdc">   2020.50176732 </i>
    <i name="pawaedc">  -2025.47475223 </i>
    <i name="eentropy">      0.00601285 </i>
    <i name="bandstr">   -368.51486197 </i>
    <i name="atom">   1177.20230207 </i>
    <i name="e_fr_energy">    -61.52744718 </i>
    <i name="e_wo_entrp">    -61.53346002 </i>
    <i name="e_0_energy">    -61.52895039 </i>
   </energy>
  </scstep>
  <scstep>
   <time name="dav">    0.75    0.75</time>
   <time name="total">    1.00    1.00</time>
   <energy>
    <i name="e_fr_energy">    -61.52881114 </i>
    <i name="e_wo_entrp">    -61.53483530 </i>
    <i name="e_0_energy">    -61.53031718 </i>
   </energy>
  </scstep>
  <scstep>
   <time name="dav">    0.78    0.78</time>
   <time name="total">    1.02    1.02</time>
   <energy>
    <i name="e_fr_energy">    -61.52896261 </i>
    <i name="e_wo_entrp">    -61.53498668 </i>
    <i name="e_0_energy">    -61.53046863 </i>
   </energy>
  </scstep>
  <scstep>
   <time name="dav">    0.84    0.84</time>
   <time name="total">    1.08    1.08</time>
   <energy>
    <i name="e_fr_energy">    -61.52897212 </i>
    <i name="e_wo_entrp">    -61.53499638 </i>
    <i name="e_0_energy">    -61.53047819 </i>
   </energy>
  </scstep>
  <scstep>
   <time name="dav">    0.60    0.60</time>
   <time name="total">    0.76    0.76</time>
   <energy>
    <i name="alphaZ">      9.38235316 </i>
    <i name="ewald">   3772.83700073 </i>
    <i name="hartreedc">  -4748.79760500 </i>
    <i name="XCdc">    101.88402546 </i>
    <i name="pawpsdc">   2005.17566664 </i>
    <i name="pawaedc">  -2010.14099868 </i>
    <i name="eentropy">      0.00602432 </i>
    <i name="bandstr">   -369.07774044 </i>
    <i name="atom">   1177.20230207 </i>
    <i name="e_fr_energy">    -61.52897174 </i>
    <i name="e_wo_entrp">    -61.53499606 </i>
    <i name="e_0_energy">    -61.53047782 </i>
   </energy>
  </scstep>
  <structure>
   <crystal>
    <varray name="basis" >
     <v>       6.52418587       0.00000000       0.00000000 </v>
     <v>       3.26209293       4.24820353       0.00000000 </v>
     <v>       0.00000000       0.00000000      20.21746794 </v>
    </varray>
    <i name="volume">    560.34874575 </i>
    <varray name="rec_basis" >
     <v>       0.15327583      -0.11769681       0.00000000 </v>
     <v>       0.00000000       0.23539362       0.00000000 </v>
     <v>       0.00000000       0.00000000       0.04946218 </v>
    </varray>
   </crystal>
   <varray name="positions" >
    <v>       0.15611039       0.16456302       0.50001147 </v>
    <v>       0.33490555       0.33396642       0.50207021 </v>
    <v>       0.17882835       0.66826679       0.49861145 </v>
    <v>       0.32691541       0.83814378       0.49950501 </v>
    <v>       0.66906351       0.15811885       0.49792875 </v>
    <v>       0.81764732       0.34786298       0.50016778 </v>
    <v>       0.68025125       0.66589955       0.49982004 </v>
    <v>       0.83315783       0.82666506       0.50011738 </v>
   </varray>
  </structure>
  <varray name="forces" >
   <v>       0.72074249      -1.07221479       0.08068938 </v>
   <v>       0.50898727       2.28437616      -0.73394264 </v>
   <v>      -0.59923388      -2.93307714       0.44646108 </v>
   <v>      -0.65921189       1.55583767      -0.01738427 </v>
   <v>      -0.24238775      -0.87506848       0.68657740 </v>
   <v>       0.73409683      -1.24195774      -0.15559461 </v>
   <v>      -0.72424350      -0.20621048      -0.01409675 </v>
   <v>       0.26154675       2.48791176      -0.29313129 </v>
  </varray>
  <varray name="stress" >
   <v>    -186.24982058      -7.64039825       0.17400082 </v>
   <v>      -7.64039825     -28.67716942       0.57818571 </v>
   <v>       0.17400080       0.57818570      -0.52681602 </v>
  </varray>
  <energy>
   <i name="e_fr_energy">    -62.10317296 </i>
   <i name="e_wo_entrp">    -62.10919728 </i>
   <i name="e_0_energy">    -62.10467904 </i>
   <i name="kinetic">      0.31652257 </i>
   <i name="lattice kinetic">      0.00000000 </i>
   <i name="nosepot">      0.00034590 </i>
   <i name="nosekinetic">      0.00008489 </i>
   <i name="total">    -61.78621960 </i>
  </energy>
  <dos>
   <i name="efermi">     -4.51961416 </i>
   <total>
    <array>
     <dimension dim="1">gridpoints</dimension>
     <dimension dim="2">spin</dimension>
     <field>energy</field>
     <field>total</field>
     <field>integrated</field>
     <set>
      <set comment="spin 1">
       <r>   -22.3624     0.0000     0.0000 </r>
       <r>   -22.2790     0.0000     0.0000 </r>
       <r>   -22.1956     0.0000     0.0000 </r>
       <r>   -22.1122     0.0000     0.0000 </r>
       <r>   -22.0288     0.0000     0.0000 </r>
       <r>   -21.9454     0.0000     0.0000 </r>
       <r>   -21.8620     0.0000     0.0000 </r>
       <r>   -21.7786     0.0000     0.0000 </r>
       <r>   -21.6952     0.0000     0.0000 </r>
       <r>   -21.6118     0.0000     0.0000 </r>
       <r>   -21.5284     0.0000     0.0000 </r>
       <r>   -21.4450     0.0000     0.0000 </r>
       <r>   -21.3616     0.0000     0.0000 </r>
       <r>   -21.2782     0.0000     0.0000 </r>
       <r>   -21.1948     0.0000     0.0000 </r>
       <r>   -21.1114     0.0007     0.0001 </r>
       <r>   -21.0280     0.0078     0.0007 </r>
       <r>   -20.9446     0.0562     0.0054 </r>
       <r>   -20.8612     0.2232     0.0242 </r>
       <r>   -20.7778     0.2871     0.0483 </r>
       <r>   -20.6944    -1.0980    -0.0441 </r>
       <r>   -20.6110    -4.0493    -0.3845 </r>
       <r>   -20.5276     0.5604    -0.3362 </r>
       <r>   -20.4442    23.8166     1.6673 </r>
       <r>   -20.3608    48.4423     5.7380 </r>
       <r>   -20.2774    42.4367     9.3007 </r>
       <r>   -20.1939    14.4976    10.5159 </r>
       <r>   -20.1105    -2.6692    10.2909 </r>
       <r>   -20.0271    -5.1730     9.8561 </r>
       <r>   -19.9437    -4.0215     9.5187 </r>
       <r>   -19.8603     6.7549    10.0897 </r>
       <r>   -19.7769    32.3893    12.8158 </r>
       <r>   -19.6935    48.2593    16.8698 </r>
       <r>   -19.6101    32.0068    19.5524 </r>
       <r>   -19.5267     7.1159    20.1473 </r>
       <r>   -19.4433     8.0115    20.8274 </r>
       <r>   -19.3599    29.4656    23.3135 </r>
       <r>   -19.2765    41.0643    26.7640 </r>
       <r>   -19.1931    29.5970    29.2402 </r>
       <r>   -19.1097     9.0228    29.9886 </r>
       <r>   -19.0263     0.5505    30.0347 </r>
       <r>   -18.9429    11.7325    31.0304 </r>
       <r>   -18.8595    28.9670    33.4760 </r>
       <r>   -18.7761    34.0596    36.3388 </r>
       <r>   -18.6927    25.1544    38.4412 </r>
       <r>   -18.6093    14.2825    39.6324 </r>
       <r>   -18.5259    15.3150    40.9234 </r>
       <r>   -18.4425    29.4015    43.4030 </r>
       <r>   -18.3591    38.5943    46.6445 </r>
       <r>   -18.2757    29.1898    49.0862 </r>
       <r>   -18.1923    13.4695    50.2127 </r>
       <r>   -18.1089    11.6666    51.2001 </r>
       <r>   -18.0255    22.9413    53.1378 </r>
       <r>   -17.9421    30.3966    55.6928 </r>
       <r>   -17.8587    25.9334    57.8631 </r>
       <r>   -17.7753    18.3511    59.3972 </r>
       <r>   -17.6919    18.3912    60.9456 </r>
       <r>   -17.6085    23.3979    62.9230 </r>
       <r>   -17.5251    25.5655    65.0775 </r>
       <r>   -17.4417    24.5399    67.1334 </r>
       <r>   -17.3583    20.1092    68.8100 </r>
       <r>   -17.2748    10.8821    69.7143 </r>
       <r>   -17.1914     4.9230    70.1268 </r>
       <r>   -17.1080    10.3241    71.0027 </r>
       <r>   -17.0246    19.0460    72.6155 </r>
       <r>   -16.9412    19.5818    74.2694 </r>
       <r>   -16.8578    15.2262    75.5497 </r>
       <r>   -16.7744    14.6618    76.7756 </r>
       <r>   -16.6910    16.9576    78.1897 </r>
       <r>   -16.6076    14.8963    79.4310 </r>
       <r>   -16.5242     7.3276    80.0415 </r>
       <r>   -16.4408     0.7743    80.1060 </r>
       <r>   -16.3574    -1.0176    80.0212 </r>
       <r>   -16.2740    -0.4107    79.9870 </r>
       <r>   -16.1906     0.0487    79.9911 </r>
       <r>   -16.1072     0.0767    79.9975 </r>
       <r>   -16.0238     0.0253    79.9996 </r>
       <r>   -15.9404     0.0045    80.0000 </r>
[...]
       <r>    1.7199    0.0000 </r>
      </set>
      <set comment="kpoint 2">
       <r>  -21.9061    1.0000 </r>
       <r>  -18.9007    1.0000 </r>
       <r>  -18.2546    1.0000 </r>
       <r>  -17.2500    1.0000 </r>
       <r>  -15.4995    1.0000 </r>
       <r>  -13.2955    1.0000 </r>
       <r>  -12.3902    1.0000 </r>
       <r>  -10.3340    1.0000 </r>
       <r>   -9.7940    1.0000 </r>
       <r>   -9.6144    1.0000 </r>
       <r>   -8.9558    1.0000 </r>
       <r>   -7.9826    1.0000 </r>
       <r>   -7.8292    1.0000 </r>
       <r>   -6.9038    1.0000 </r>
       <r>   -5.4305    1.0000 </r>
       <r>   -5.1655    1.0000 </r>
       <r>   -3.6826   -0.0456 </r>
       <r>   -1.4763    0.0000 </r>
       <r>    0.5180    0.0000 </r>
       <r>    0.7734    0.0000 </r>
       <r>    1.3088    0.0000 </r>
       <r>    1.4406    0.0000 </r>
      </set>
      <set comment="kpoint 3">
       <r>  -21.6143    1.0000 </r>
       <r>  -19.8447    1.0000 </r>
       <r>  -18.5097    1.0000 </r>
       <r>  -15.9997    1.0000 </r>
       <r>  -15.5265    1.0000 </r>
       <r>  -12.7510    1.0000 </r>
       <r>  -11.9654    1.0000 </r>
       <r>  -11.2740    1.0000 </r>
       <r>  -10.2467    1.0000 </r>
       <r>   -9.3468    1.0000 </r>
       <r>   -9.3273    1.0000 </r>
       <r>   -8.2799    1.0000 </r>
       <r>   -7.5632    1.0000 </r>
       <r>   -7.2483    1.0000 </r>
       <r>   -6.7510    1.0000 </r>
       <r>   -4.0110    1.0421 </r>
       <r>   -3.1937    0.0001 </r>
       <r>   -0.6239    0.0000 </r>
       <r>    0.5950    0.0000 </r>
       <r>    0.9433    0.0000 </r>
       <r>    1.2009    0.0000 </r>
       <r>    1.7363    0.0000 </r>
      </set>
      <set comment="kpoint 4">
       <r>  -21.1917    1.0000 </r>
       <r>  -20.7709    1.0000 </r>
       <r>  -17.9303    1.0000 </r>
       <r>  -16.0574    1.0000 </r>
       <r>  -14.5390    1.0000 </r>
       <r>  -13.7512    1.0000 </r>
       <r>  -12.5123    1.0000 </r>
       <r>  -11.3986    1.0000 </r>
       <r>  -10.2217    1.0000 </r>
       <r>   -8.8602    1.0000 </r>
       <r>   -8.7651    1.0000 </r>
       <r>   -8.5132    1.0000 </r>
       <r>   -7.9814    1.0000 </r>
       <r>   -7.5356    1.0000 </r>
       <r>   -6.2684    1.0000 </r>
       <r>   -4.6455    1.0000 </r>
       <r>   -1.9815    0.0000 </r>
       <r>   -0.8521    0.0000 </r>
       <r>    1.1923    0.0000 </r>
       <r>    1.2390    0.0000 </r>
       <r>    1.6135    0.0000 </r>
       <r>    1.9375    0.0000 </r>
      </set>
     </set>
    </set>
   </array>
  </eigenvalues>
  <separator name="orbital magnetization" >
   <v name="MAGDIPOLOUT">      0.00000000      0.00000000      0.00000000</v>
  </separator>
  <dos>
   <i name="efermi">     -3.84968658 </i>
   <total>
    <array>
     <dimension dim="1">gridpoints</dimension>
     <dimension dim="2">spin</dimension>
     <field>energy</field>
     <field>total</field>
     <field>integrated</field>
     <set>
      <set comment="spin 1">
       <r>   -23.9061     0.0000     0.0000 </r>
       <r>   -23.8133     0.0000     0.0000 </r>
       <r>   -23.7205     0.0000     0.0000 </r>
       <r>   -23.6277     0.0000     0.0000 </r>
       <r>   -23.5349     0.0000     0.0000 </r>
       <r>   -23.4420     0.0000     0.0000 </r>
       <r>   -23.3492     0.0000     0.0000 </r>
       <r>   -23.2564     0.0000     0.0000 </r>
       <r>   -23.1636     0.0000     0.0000 </r>
       <r>   -23.0708     0.0000     0.0000 </r>
       <r>   -22.9780     0.0000     0.0000 </r>
       <r>   -22.8852     0.0000     0.0000 </r>
       <r>   -22.7924     0.0000     0.0000 </r>
       <r>   -22.6995     0.0000     0.0000 </r>
       <r>   -22.6067     0.0001     0.0000 </r>
       <r>   -22.5139     0.0012     0.0001 </r>
       <r>   -22.4211     0.0077     0.0008 </r>
       <r>   -22.3283     0.0190     0.0026 </r>
       <r>   -22.2355    -0.0254     0.0002 </r>
       <r>   -22.1427    -0.1815    -0.0166 </r>
       <r>   -22.0499     0.0057    -0.0161 </r>
       <r>   -21.9571     1.2205     0.0972 </r>
       <r>   -21.8642     2.7489     0.3524 </r>
       <r>   -21.7714     3.5266     0.6797 </r>
       <r>   -21.6786     3.8382     1.0359 </r>
       <r>   -21.5858     3.3924     1.3508 </r>
       <r>   -21.4930     1.6334     1.5024 </r>
       <r>   -21.4002    -0.0511     1.4976 </r>
       <r>   -21.3074     0.1714     1.5135 </r>
       <r>   -21.2146     1.8920     1.6891 </r>
       <r>   -21.1217     2.4673     1.9181 </r>
       <r>   -21.0289     0.9548     2.0067 </r>
       <r>   -20.9361    -0.1492     1.9929 </r>
       <r>   -20.8433     0.8959     2.0760 </r>
       <r>   -20.7505     2.4287     2.3014 </r>
       <r>   -20.6577     1.9853     2.4857 </r>
       <r>   -20.5649     0.4232     2.5250 </r>
       <r>   -20.4721    -0.2037     2.5061 </r>
       <r>   -20.3792    -0.0684     2.4997 </r>
       <r>   -20.2864     0.0343     2.5029 </r>
       <r>   -20.1936    -0.1176     2.4920 </r>
       <r>   -20.1008    -0.3545     2.4591 </r>
       <r>   -20.0080     0.5506     2.5102 </r>
       <r>   -19.9152     3.2717     2.8139 </r>
       <r>   -19.8224     4.7762     3.2572 </r>
       <r>   -19.7296     2.7627     3.5136 </r>
       <r>   -19.6368     0.2424     3.5361 </r>
       <r>   -19.5439    -0.3488     3.5037 </r>
       <r>   -19.4511    -0.0806     3.4962 </r>
       <r>   -19.3583     0.0418     3.5001 </r>
       <r>   -19.2655     0.0139     3.5014 </r>
       <r>   -19.1727    -0.1366     3.4887 </r>
       <r>   -19.0799    -0.1456     3.4752 </r>
       <r>   -18.9871     0.8384     3.5530 </r>
       <r>   -18.8943     2.3310     3.7694 </r>
       <r>   -18.8014     2.0728     3.9617 </r>
       <r>   -18.7086     0.4345     4.0021 </r>
       <r>   -18.6158     0.3258     4.0323 </r>
       <r>   -18.5230     1.8154     4.2008 </r>
       <r>   -18.4302     2.2689     4.4114 </r>
       <r>   -18.3374     1.8586     4.5839 </r>
       <r>   -18.2446     2.1810     4.7863 </r>
       <r>   -18.1518     1.7556     4.9493 </r>
       <r>   -18.0589     0.7841     5.0220 </r>
       <r>   -17.9661     1.5382     5.1648 </r>
       <r>   -17.8733     2.4201     5.3894 </r>
       <r>   -17.7805     1.3574     5.5154 </r>
       <r>   -17.6877     0.0536     5.5203 </r>
       <r>   -17.5949    -0.1968     5.5021 </r>
       <r>   -17.5021    -0.1935     5.4841 </r>
       <r>   -17.4093    -0.1095     5.4740 </r>
       <r>   -17.3165     0.9790     5.5648 </r>
       <r>   -17.2236     2.8764     5.8318 </r>
       <r>   -17.1308     3.7330     6.1783 </r>
       <r>   -17.0380     2.5892     6.4186 </r>
       <r>   -16.9452     1.1752     6.5276 </r>
       <r>   -16.8524     1.6398     6.6798 </r>
       <r>   -16.7596     2.3501     6.8980 </r>
       <r>   -16.6668     1.2705     7.0159 </r>
       <r>   -16.5740     0.0213     7.0179 </r>
       <r>   -16.4811    -0.1500     7.0039 </r>
       <r>   -16.3883    -0.0376     7.0004 </r>
       <r>   -16.2955    -0.2614     6.9762 </r>
       <r>   -16.2027    -0.2212     6.9557 </r>
       <r>   -16.1099     1.6765     7.1113 </r>
       <r>   -16.0171     4.9475     7.5704 </r>
       <r>   -15.9243     6.0204     8.1292 </r>
       <r>   -15.8315     3.5417     8.4579 </r>
       <r>   -15.7386     0.3941     8.4945 </r>
       <r>   -15.6458     0.1064     8.5044 </r>
       <r>   -15.5530     3.1129     8.7933 </r>
       <r>   -15.4602     5.0216     9.2593 </r>
       <r>   -15.3674     2.8552     9.5243 </r>
       <r>   -15.2746     0.1483     9.5381 </r>
       <r>   -15.1818    -0.3863     9.5022 </r>
       <r>   -15.0890    -0.0691     9.4958 </r>
       <r>   -14.9962     0.0469     9.5002 </r>
       <r>   -14.9033     0.0131     9.5014 </r>
       <r>   -14.8105    -0.1381     9.4886 </r>
       <r>   -14.7177    -0.1468     9.4750 </r>
       <r>   -14.6249     0.8335     9.5523 </r>
       <r>   -14.5321     2.3256     9.7682 </r>
       <r>   -14.4393     2.1634     9.9690 </r>
       <r>   -14.3465     0.6155    10.0261 </r>
       <r>   -14.2537    -0.1722    10.0101 </r>
       <r>   -14.1608    -0.0807    10.0026 </r>
       <r>   -14.0680    -0.0813     9.9951 </r>
       <r>   -13.9752    -0.3921     9.9587 </r>
       <r>   -13.8824     0.2404     9.9810 </r>
       <r>   -13.7896     3.0609    10.2651 </r>
       <r>   -13.6968     5.0690    10.7355 </r>
       <r>   -13.6040     3.0034    11.0143 </r>
       <r>   -13.5112     0.0350    11.0175 </r>
       <r>   -13.4183    -0.1130    11.0070 </r>
       <r>   -13.3255     1.7273    11.1674 </r>
       <r>   -13.2327     2.5439    11.4035 </r>
       <r>   -13.1399     1.2669    11.5210 </r>
       <r>   -13.0471    -0.1049    11.5113 </r>
       <r>   -12.9543    -0.3695    11.4770 </r>
       <r>   -12.8615     0.4312    11.5170 </r>
       <r>   -12.7687     1.8647    11.6901 </r>
       <r>   -12.6759     2.2439    11.8984 </r>
       <r>   -12.5830     1.9283    12.0773 </r>
       <r>   -12.4902     2.9789    12.3538 </r>
       <r>   -12.3974     3.9744    12.7227 </r>
       <r>   -12.3046     2.6548    12.9691 </r>
       <r>   -12.2118     0.2616    12.9934 </r>
       <r>   -12.1190    -0.1808    12.9766 </r>
       <r>   -12.0262     2.5522    13.2135 </r>
       <r>   -11.9334     5.0533    13.6825 </r>
       <r>   -11.8405     3.4754    14.0050 </r>
       <r>   -11.7477     0.4607    14.0478 </r>
       <r>   -11.6549    -0.5797    13.9940 </r>
       <r>   -11.5621    -0.2857    13.9675 </r>
       <r>   -11.4693     0.9284    14.0536 </r>
       <r>   -11.3765     2.8928    14.3221 </r>
       <r>   -11.2837     3.9473    14.6885 </r>
       <r>   -11.1909     3.6774    15.0298 </r>
       <r>   -11.0980     3.0517    15.3130 </r>
       <r>   -11.0052     1.8667    15.4863 </r>
       <r>   -10.9124     0.3974    15.5231 </r>
       <r>   -10.8196    -0.1761    15.5068 </r>
       <r>   -10.7268    -0.0514    15.5020 </r>
       <r>   -10.6340    -0.0408    15.4982 </r>
       <r>   -10.5412    -0.3291    15.4677 </r>
       <r>   -10.4484    -0.0080    15.4670 </r>
       <r>   -10.3556     2.4668    15.6959 </r>
       <r>   -10.2627     5.9752    16.2505 </r>
       <r>   -10.1699     6.8445    16.8857 </r>
       <r>   -10.0771     4.5647    17.3094 </r>
       <r>    -9.9843     1.7609    17.4728 </r>
       <r>    -9.8915     0.5975    17.5283 </r>
       <r>    -9.7987     1.9374    17.7081 </r>
       <r>    -9.7059     4.4617    18.1222 </r>
       <r>    -9.6131     5.3543    18.6191 </r>
       <r>    -9.5202     3.3518    18.9302 </r>
       <r>    -9.4274     2.2466    19.1387 </r>
       <r>    -9.3346     4.1755    19.5263 </r>
       <r>    -9.2418     4.1742    19.9137 </r>
       <r>    -9.1490     1.1150    20.0172 </r>
       <r>    -9.0562    -0.0003    20.0172 </r>
       <r>    -8.9634     2.3041    20.2310 </r>
       <r>    -8.8706     4.8957    20.6854 </r>
       <r>    -8.7777     4.9625    21.1460 </r>
       <r>    -8.6849     3.4230    21.4637 </r>
       <r>    -8.5921     3.4841    21.7870 </r>
       <r>    -8.4993     4.3804    22.1936 </r>
       <r>    -8.4065     3.3151    22.5013 </r>
       <r>    -8.3137     2.1495    22.7008 </r>
       <r>    -8.2209     1.7939    22.8673 </r>
       <r>    -8.1281     1.2315    22.9815 </r>
       <r>    -8.0353     2.5757    23.2206 </r>
       <r>    -7.9424     5.1429    23.6979 </r>
       <r>    -7.8496     5.5692    24.2148 </r>
       <r>    -7.7568     4.3305    24.6167 </r>
       <r>    -7.6640     3.5698    24.9480 </r>
       <r>    -7.5712     5.1997    25.4306 </r>
       <r>    -7.4784     7.6299    26.1388 </r>
       <r>    -7.3856     6.8917    26.7784 </r>
       <r>    -7.2928     4.2693    27.1747 </r>
       <r>    -7.1999     2.4517    27.4022 </r>
       <r>    -7.1071     0.9190    27.4875 </r>
       <r>    -7.0143     0.3336    27.5185 </r>
       <r>    -6.9215     1.7326    27.6793 </r>
       <r>    -6.8287     3.3785    27.9928 </r>
       <r>    -6.7359     3.4564    28.3136 </r>
       <r>    -6.6431     1.9634    28.4958 </r>
       <r>    -6.5503     0.2100    28.5153 </r>
       <r>    -6.4574    -0.3927    28.4789 </r>
       <r>    -6.3646     0.5856    28.5332 </r>
       <r>    -6.2718     2.2232    28.7396 </r>
       <r>    -6.1790     2.3021    28.9532 </r>
       <r>    -6.0862     0.7860    29.0262 </r>
       <r>    -5.9934    -0.1394    29.0132 </r>
       <r>    -5.9006    -0.1529    28.9991 </r>
       <r>    -5.8078    -0.1879    28.9816 </r>
       <r>    -5.7150    -0.0546    28.9765 </r>
       <r>    -5.6221     1.2183    29.0896 </r>
       <r>    -5.5293     3.1524    29.3822 </r>
       <r>    -5.4365     3.7100    29.7265 </r>
       <r>    -5.3437     2.3777    29.9472 </r>
       <r>    -5.2509     1.4686    30.0835 </r>
       <r>    -5.1581     2.1048    30.2789 </r>
       <r>    -5.0653     1.8597    30.4515 </r>
       <r>    -4.9725     0.5816    30.5055 </r>
       <r>    -4.8796     0.9383    30.5925 </r>
       <r>    -4.7868     2.5035    30.8249 </r>
       <r>    -4.6940     3.2460    31.1262 </r>
       <r>    -4.6012     2.7953    31.3856 </r>
       <r>    -4.5084     1.3710    31.5128 </r>
       <r>    -4.4156     0.0891    31.5211 </r>
       <r>    -4.3228    -0.2552    31.4974 </r>
       <r>    -4.2300    -0.2456    31.4746 </r>
       <r>    -4.1371     0.2875    31.5013 </r>
       <r>    -4.0443     1.7650    31.6651 </r>
       <r>    -3.9515     2.3720    31.8853 </r>
       <r>    -3.8587     1.1747    31.9943 </r>
       <r>    -3.7659     0.8901    32.0769 </r>
       <r>    -3.6731     2.0641    32.2685 </r>
       <r>    -3.5803     1.9216    32.4469 </r>
       <r>    -3.4875     1.0927    32.5483 </r>
       <r>    -3.3947     1.7616    32.7118 </r>
       <r>    -3.3018     2.7148    32.9637 </r>
       <r>    -3.2090     2.9007    33.2330 </r>
       <r>    -3.1162     2.2741    33.4440 </r>
       <r>    -3.0234     0.8391    33.5219 </r>
       <r>    -2.9306    -0.1115    33.5116 </r>
       <r>    -2.8378    -0.1423    33.4984 </r>
       <r>    -2.7450    -0.0040    33.4980 </r>
       <r>    -2.6522     0.0164    33.4995 </r>
       <r>    -2.5593     0.0072    33.5002 </r>
       <r>    -2.4665     0.0119    33.5013 </r>
       <r>    -2.3737     0.0121    33.5024 </r>
       <r>    -2.2809    -0.0860    33.4944 </r>
       <r>    -2.1881    -0.2088    33.4750 </r>
       <r>    -2.0953     0.4106    33.5132 </r>
       <r>    -2.0025     1.9666    33.6957 </r>
       <r>    -1.9097     2.4647    33.9244 </r>
       <r>    -1.8168     1.0565    34.0225 </r>
       <r>    -1.7240    -0.2508    33.9992 </r>
       <r>    -1.6312    -0.1779    33.9827 </r>
       <r>    -1.5384     1.1236    34.0870 </r>
       <r>    -1.4456     2.3325    34.3035 </r>
       <r>    -1.3528     2.4331    34.5293 </r>
       <r>    -1.2600     2.4672    34.7583 </r>
       <r>    -1.1672     2.0578    34.9493 </r>
       <r>    -1.0744     0.5670    35.0019 </r>
       <r>    -0.9815     0.0772    35.0090 </r>
       <r>    -0.8887     1.4193    35.1408 </r>
       <r>    -0.7959     2.4060    35.3641 </r>
       <r>    -0.7031     2.3204    35.5794 </r>
       <r>    -0.6103     2.4229    35.8043 </r>
       <r>    -0.5175     1.8774    35.9786 </r>
       <r>    -0.4247     0.4818    36.0233 </r>
       <r>    -0.3319    -0.1839    36.0062 </r>
       <r>    -0.2390    -0.0930    35.9976 </r>
       <r>    -0.1462     0.0110    35.9986 </r>
       <r>    -0.0534     0.0163    36.0001 </r>
       <r>     0.0394     0.0244    36.0024 </r>
       <r>     0.1322     0.0412    36.0062 </r>
       <r>     0.2250    -0.1102    35.9960 </r>
       <r>     0.3178    -0.4901    35.9505 </r>
       <r>     0.4106     0.3016    35.9785 </r>
       <r>     0.5035     3.8544    36.3362 </r>
       <r>     0.5963     6.8915    36.9759 </r>
       <r>     0.6891     5.5812    37.4939 </r>
       <r>     0.7819     3.7719    37.8439 </r>
       <r>     0.8747     4.7348    38.2834 </r>
       <r>     0.9675     4.6590    38.7158 </r>
       <r>     1.0603     2.5013    38.9479 </r>
       <r>     1.1531     4.0252    39.3215 </r>
       <r>     1.2459     9.3087    40.1855 </r>
       <r>     1.3388    10.5059    41.1606 </r>
       <r>     1.4316     6.2893    41.7443 </r>
       <r>     1.5244     2.7767    42.0020 </r>
       <r>     1.6172     3.4025    42.3178 </r>
       <r>     1.7100     5.7527    42.8517 </r>
       <r>     1.8028     5.5716    43.3688 </r>
       <r>     1.8956     3.5106    43.6947 </r>
       <r>     1.9884     2.2525    43.9037 </r>
       <r>     2.0813     1.1374    44.0093 </r>
       <r>     2.1741     0.0649    44.0153 </r>
       <r>     2.2669    -0.1650    44.0000 </r>
       <r>     2.3597    -0.0268    43.9975 </r>
       <r>     2.4525     0.0181    43.9992 </r>
       <r>     2.5453     0.0076    43.9999 </r>
       <r>     2.6381     0.0012    44.0000 </r>
       <r>     2.7309     0.0001    44.0000 </r>
       <r>     2.8238     0.0000    44.0000 </r>
       <r>     2.9166     0.0000    44.0000 </r>
       <r>     3.0094     0.0000    44.0000 </r>
       <r>     3.1022     0.0000    44.0000 </r>
       <r>     3.1950     0.0000    44.0000 </r>
       <r>     3.2878     0.0000    44.0000 </r>
       <r>     3.3806     0.0000    44.0000 </r>
       <r>     3.4734     0.0000    44.0000 </r>
       <r>     3.5662     0.0000    44.0000 </r>
       <r>     3.6591     0.0000    44.0000 </r>
       <r>     3.7519     0.0000    44.0000 </r>
       <r>     3.8447     0.0000    44.0000 </r>
       <r>     3.9375     0.0000    44.0000 </r>
      </set>
     </set>
    </array>
   </total>
  </dos>
 </calculation>
 <structure name="finalpos" >
  <crystal>
   <varray name="basis" >
    <v>       6.52418587       0.00000000       0.00000000 </v>
    <v>       3.26209293       4.24820353       0.00000000 </v>
    <v>       0.00000000       0.00000000      20.21746794 </v>
   </varray>
   <i name="volume">    560.34874575 </i>
   <varray name="rec_basis" >
    <v>       0.15327583      -0.11769681       0.00000000 </v>
    <v>       0.00000000       0.23539362       0.00000000 </v>
    <v>       0.00000000       0.00000000       0.04946218 </v>
   </varray>
  </crystal>
  <varray name="positions" >
   <v>       0.13850830       0.20195038       0.49973125 </v>
   <v>       0.10379198       0.49973207       0.49976773 </v>
   <v>       0.17908132       0.72984784       0.49974901 </v>
   <v>       0.34511051       0.84165059       0.49971057 </v>
   <v>       0.89458116       0.00268191       0.49980058 </v>
   <v>       0.86127830       0.29816406       0.49970925 </v>
   <v>       0.65453613       0.65832816       0.49982589 </v>
   <v>       0.82033532       0.77092622       0.49976476 </v>
  </varray>
  <varray name="selective"  type="logical" >
   <v type="logical" >  T  T  T </v>
   <v type="logical" >  T  T  T </v>
   <v type="logical" >  T  T  T </v>
   <v type="logical" >  T  T  T </v>
   <v type="logical" >  T  T  T </v>
   <v type="logical" >  T  T  T </v>
   <v type="logical" >  T  T  T </v>
   <v type="logical" >  T  T  T </v>
  </varray>
  <varray name="velocities" >
   <v>       0.00003681      -0.00002522       0.00000687 </v>
   <v>      -0.00014391       0.00011814      -0.00000277 </v>
   <v>       0.00012474      -0.00017643       0.00001072 </v>
   <v>      -0.00002635       0.00022244      -0.00000182 </v>
   <v>       0.00004326      -0.00008150      -0.00000003 </v>
   <v>      -0.00000336      -0.00010170      -0.00000637 </v>
   <v>      -0.00007158       0.00011135      -0.00000373 </v>
   <v>       0.00004558      -0.00007063      -0.00000390 </v>
  </varray>
  <nose>
   <v>       2.00000000       0.00010000     300.00000000     300.00000000 </v>
  </nose>
 </structure>
</modeling>
