unknown system                          
           1
     6.524186    0.000000    0.000000
     3.262093    4.248204    0.000000
     0.000000    0.000000   20.217468
   C 
     8
Direct configuration=     1
   0.15396375  0.16211223  0.50204715
   0.34059494  0.33974858  0.50022858
   0.19042593  0.64896702  0.49990603
   0.32351906  0.85422030  0.49944323
   0.66387368  0.15080362  0.50114680
   0.82768540  0.34091675  0.49699100
   0.67745930  0.66579139  0.49996398
   0.81935532  0.84092908  0.49850540
Direct configuration=     2
   0.15480028  0.16080664  0.50187777
   0.34004062  0.33861601  0.50046109
   0.18918966  0.65134880  0.49975283
   0.32308916  0.85443999  0.49943952
   0.66515728  0.15006647  0.50079598
   0.82626930  0.34164427  0.49725128
   0.67783811  0.66642501  0.49998793
   0.82049301  0.84014171  0.49866578
Direct configuration=     3
   0.15542464  0.15997101  0.50168731
   0.33960148  0.33730114  0.50069709
   0.18777048  0.65405117  0.49959502
   0.32296332  0.85399794  0.49943997
   0.66620454  0.14988188  0.50043239
   0.82487896  0.34246700  0.49754594
   0.67820782  0.66689875  0.49999815
   0.82182636  0.83891980  0.49883633
Direct configuration=     4
   0.15582408  0.15964817  0.50147879
   0.33920571  0.33596470  0.50093226
   0.18625430  0.65688356  0.49943531
   0.32313791  0.85288627  0.49944365
   0.66701892  0.15022508  0.50006046
   0.82353117  0.34335979  0.49787070
   0.67857046  0.66720000  0.49999602
   0.82333531  0.83732086  0.49901503
Direct configuration=     5
   0.15601880  0.15982086  0.50125515
   0.33878730  0.33475572  0.50116196
   0.18472200  0.65966516  0.49927678
   0.32357565  0.85115871  0.49944992
   0.66762446  0.15102770  0.49968482
   0.82224641  0.34428835  0.49822079
   0.67892388  0.66732671  0.49998314
   0.82497962  0.83544492  0.49919969
Direct configuration=     6
   0.15605783  0.16041708  0.50101920
   0.33829132  0.33379976  0.50138146
   0.18324437  0.66223677  0.49912266
   0.32420996  0.84892483  0.49945834
   0.66806034  0.15218978  0.49931032
   0.82104851  0.34521046  0.49859111
   0.67926189  0.66728724  0.49996129
   0.82670418  0.83342191  0.49938787
Direct configuration=     7
   0.15600998  0.16132461  0.50077383
   0.33767619  0.33319306  0.50158613
   0.18187930  0.66446726  0.49897618
   0.32495438  0.84633472  0.49946855
   0.66837399  0.15359489  0.49894212
   0.81996343  0.34607846  0.49897634
   0.67957526  0.66709877  0.49993229
   0.82844613  0.83139580  0.49957680
Direct configuration=     8
   0.15595314  0.16240903  0.50052198
   0.33691431  0.33300055  0.50177165
   0.18067078  0.66625641  0.49884038
   0.32571376  0.84356007  0.49948012
   0.66861500  0.15512367  0.49858555
   0.81901798  0.34684205  0.49937110
   0.67985264  0.66678546  0.49989796
   0.83014132  0.82950998  0.49976347
Direct configuration=     9
   0.15596394  0.16353170  0.50026678
   0.33599137  0.33325659  0.50193413
   0.17964860  0.66753545  0.49871801
   0.32639507  0.84077542  0.49949250
   0.66883073  0.15666423  0.49824600
   0.81823816  0.34745183  0.49977000
   0.68008187  0.66637579  0.49986001
   0.83172951  0.82789586  0.49994473
Direct configuration=    10
   0.15611039  0.16456302  0.50001147
   0.33490555  0.33396642  0.50207021
   0.17882835  0.66826679  0.49861145
   0.32691541  0.83814378  0.49950501
   0.66906351  0.15811885  0.49792875
   0.81764732  0.34786298  0.50016778
   0.68025125  0.66589955  0.49982004
   0.83315783  0.82666506  0.50011738
Direct configuration=    11
   0.15644693  0.16539146  0.49975941
   0.33366657  0.33510808  0.50217711
   0.17821174  0.66844345  0.49852264
   0.32720742  0.83580668  0.49951683
   0.66934913  0.15940781  0.49763882
   0.81726436  0.34803923  0.50055933
   0.68035093  0.66538438  0.49977952
   0.83438295  0.82590485  0.50027836
Direct configuration=    12
   0.15701234  0.16592790  0.49951398
   0.33229527  0.33663361  0.50225267
   0.17778653  0.66808884  0.49845308
   0.32722167  0.83387918  0.49952704
   0.66971661  0.16047055  0.49738086
   0.81710210  0.34795612  0.50093971
   0.68037399  0.66485290  0.49973980
   0.83537197  0.82567632  0.50042479
Direct configuration=    13
   0.15782905  0.16610755  0.49927857
   0.33082316  0.33847027  0.50229538
   0.17752678  0.66725654  0.49840376
   0.32692765  0.83244707  0.49953463
   0.67018791  0.16126612  0.49715905
   0.81716621  0.34760336  0.50130415
   0.68031729  0.66432037  0.49970220
   0.83610290  0.82601360  0.50055410
Direct configuration=    14
   0.15890359  0.16589018  0.49905650
   0.32929230  0.34052140  0.50230433
   0.17739299  0.66603015  0.49837523
   0.32631340  0.83156626  0.49953860
   0.67077776  0.16177301  0.49697703
   0.81745455  0.34698606  0.50164806
   0.68018197  0.66379326  0.49966797
   0.83656488  0.82692399  0.50066402
Direct configuration=    15
   0.16022720  0.16526021  0.49885095
   0.32775471  0.34266815  0.50227924
   0.17733290  0.66452198  0.49836751
   0.32538469  0.83126244  0.49953797
   0.67149330  0.16198933  0.49683784
   0.81795712  0.34612468  0.50196703
   0.67997344  0.66326901  0.49963841
   0.83675861  0.82838793  0.50075269
Direct configuration=    16
   0.16177675  0.16422676  0.49866488
   0.32627110  0.34477285  0.50222046
   0.17728303  0.66286980  0.49838017
   0.32416400  0.83153100  0.49953184
   0.67233318  0.16193320  0.49674377
   0.81865649  0.34505358  0.50225687
   0.67970103  0.66273693  0.49961479
   0.83669689  0.83035907  0.50081875
Direct configuration=    17
   0.16351572  0.16282402  0.49850095
   0.32490817  0.34668548  0.50212885
   0.17717191  0.66123005  0.49841237
   0.32268931  0.83233685  0.49951947
   0.67328652  0.16164331  0.49669636
   0.81952901  0.34381811  0.50251367
   0.67937713  0.66218034  0.49959840
   0.83640524  0.83276442  0.50086135
Direct configuration=    18
   0.16539509  0.16111213  0.49836140
   0.32373355  0.34825485  0.50200573
   0.17692530  0.65976639  0.49846295
   0.32101290  0.83361395  0.49950034
   0.67433192  0.16117955  0.49669625
   0.82054614  0.34247111  0.50273394
   0.67901612  0.66157913  0.49959041
   0.83592253  0.83550490  0.50088027
Direct configuration=    19
   0.16735453  0.15917765  0.49824799
   0.32280900  0.34934374  0.50185269
   0.17647360  0.65863341  0.49853063
   0.31919987  0.83526557  0.49947424
   0.67543676  0.16062241  0.49674316
   0.82167611  0.34106902  0.50291467
   0.67863317  0.66091279  0.49959185
   0.83530100  0.83845688  0.50087593
Direct configuration=    20
   0.16932427  0.15713279  0.49816190
   0.32218182  0.34984698  0.50167143
   0.17576065  0.65795732  0.49861415
   0.31732611  0.83716591  0.49944127
   0.67655771  0.16007047  0.49683591
   0.82288567  0.33966797  0.50305348
   0.67824301  0.66016346  0.49960347
   0.83460526  0.84147606  0.50084939
Direct configuration=    21
   0.17122782  0.15511226  0.49810372
   0.32187664  0.34970881  0.50146363
   0.17475233  0.65781758  0.49871242
   0.31547534  0.83916397  0.49940193
   0.67764267  0.15963515  0.49697245
   0.82414165  0.33832048  0.50314867
   0.67785887  0.65931801  0.49962574
   0.83390963  0.84440418  0.50080230
Direct configuration=    22
   0.17298617  0.15326613  0.49807340
   0.32188993  0.34893376  0.50123093
   0.17344230  0.65823463  0.49882447
   0.31373459  0.84109181  0.49935707
   0.67863525  0.15943097  0.49715004
   0.82541251  0.33707258  0.50319933
   0.67749147  0.65837031  0.49965873
   0.83329320  0.84707976  0.50073672
Direct configuration=    23
   0.17452380  0.15174746  0.49807033
   0.32218934  0.34758708  0.50097512
   0.17185298  0.65916844  0.49894942
   0.31218801  0.84277755  0.49930783
   0.67948123  0.15956210  0.49736546
   0.82666964  0.33596169  0.50320529
   0.67714814  0.65732262  0.49970216
   0.83283267  0.84935263  0.50065491
Direct configuration=    24
   0.17577632  0.15069478  0.49809346
   0.32271801  0.34578471  0.50069829
   0.17003164  0.66052774  0.49908617
   0.31090912  0.84406335  0.49925554
   0.68013677  0.16010624  0.49761525
   0.82788869  0.33501492  0.50316721
   0.67683215  0.65618650  0.49975535
   0.83259352  0.85110107  0.50055911
Direct configuration=    25
   0.17669818  0.15021260  0.49814135
   0.32340210  0.34367625  0.50040304
   0.16804297  0.66218614  0.49923321
   0.30995256  0.84482585  0.49920161
   0.68057613  0.16109985  0.49789583
   0.82905043  0.33424834  0.50308645
   0.67654205  0.65498353  0.49981729
   0.83262217  0.85224662  0.50045143
Direct configuration=    26
   0.17726918  0.15035377  0.49821235
   0.32415965  0.34142597  0.50009264
   0.16596066  0.66400087  0.49938851
   0.30934748  0.84499380  0.49914741
   0.68079685  0.16252876  0.49820362
   0.83014148  0.33366678  0.50296510
   0.67627146  0.65374496  0.49988665
   0.83294023  0.85276412  0.50033375
Direct configuration=    27
   0.17749769  0.15110877  0.49830463
   0.32490896  0.33919515  0.49977098
   0.16385939  0.66583004  0.49954949
   0.30909401  0.84455917  0.49909425
   0.68082110  0.16432661  0.49853493
   0.83115473  0.33326398  0.50280581
   0.67600894  0.65251104  0.49996190
   0.83354262  0.85268414  0.50020786
Direct configuration=    28
   0.17741895  0.15240673  0.49841615
   0.32557452  0.33712962  0.49944249
   0.16180908  0.66754483  0.49971310
   0.30916474  0.84357628  0.49904335
   0.68069237  0.16638287  0.49888587
   0.83208916  0.33302375  0.50261176
   0.67573851  0.65132933  0.50004132
   0.83440061  0.85208528  0.50007559
Direct configuration=    29
   0.17708908  0.15412727  0.49854472
   0.32609075  0.33535234  0.49911195
   0.15987150  0.66903661  0.49987597
   0.30951047  0.84215043  0.49899589
   0.68046902  0.16855747  0.49925221
   0.83294913  0.33292185  0.50238653
   0.67544050  0.65025229  0.50012312
   0.83546798  0.85108020  0.49993901
Direct configuration=    30
   0.17657674  0.15611881  0.49868786
   0.32640423  0.33395915  0.49878426
   0.15809819  0.67022084  0.50003460
   0.31006851  0.84041973  0.49895306
   0.68021664  0.17069788  0.49962935
   0.83374307  0.33292856  0.50213400
   0.67509316  0.64933379  0.50020553
   0.83668839  0.84979945  0.49980045
Direct configuration=    31
   0.17595418  0.15821882  0.49884291
   0.32647433  0.33301818  0.49846426
   0.15653015  0.67103739  0.50018552
   0.31077141  0.83853538  0.49891608
   0.68000101  0.17265489  0.50001239
   0.83448167  0.33301207  0.50185823
   0.67467459  0.64862504  0.50028686
   0.83800207  0.84837622  0.49966258
Direct configuration=    32
   0.17528992  0.16027055  0.49900699
   0.32627337  0.33257036  0.49815658
   0.15519786  0.67144965  0.50032540
   0.31155412  0.83664535  0.49888613
   0.67988291  0.17429446  0.50039621
   0.83517584  0.33314213  0.50156337
   0.67416502  0.64817016  0.50036559
   0.83935081  0.84693510  0.49952825
Direct configuration=    33
   0.17464349  0.16213485  0.49917710
   0.32578638  0.33263061  0.49786548
   0.15412153  0.67144333  0.50045123
   0.31235914  0.83488294  0.49886438
   0.67991483  0.17550548  0.50077561
   0.83583450  0.33329391  0.50125359
   0.67354922  0.64800173  0.50044038
   0.84068117  0.84558469  0.49940042
Direct configuration=    34
   0.17406225  0.16369718  0.49935013
   0.32501090  0.33318938  0.49759483
   0.15331127  0.67102483  0.50056040
   0.31313946  0.83336024  0.49885189
   0.68013918  0.17620389  0.50114546
   0.83646267  0.33345119  0.50093305
   0.67281863  0.64813711  0.50051007
   0.84194628  0.84441346  0.49928205
Direct configuration=    35
   0.17358008  0.16487032  0.49952296
   0.32395684  0.33421367  0.49734806
   0.15276710  0.67022032  0.50065070
   0.31385981  0.83216558  0.49884963
   0.68058767  0.17633403  0.50150076
   0.83706037  0.33360803  0.50060590
   0.67197260  0.64857665  0.50057361
   0.84310655  0.84348838  0.49917594
Direct configuration=    36
   0.17321707  0.16559518  0.49969240
   0.32264650  0.33564785  0.49712815
   0.15247856  0.66907527  0.50072047
   0.31449693  0.83136289  0.49885846
   0.68128084  0.17586897  0.50183674
   0.83762198  0.33376951  0.50027630
   0.67101902  0.64930296  0.50063005
   0.84413048  0.84285404  0.49908468
Direct configuration=    37
   0.17298001  0.16584028  0.49985530
   0.32111456  0.33741429  0.49693763
   0.15242419  0.66765431  0.50076856
   0.31503918  0.83099203  0.49887912
   0.68222780  0.17481008  0.50214888
   0.83813672  0.33395045  0.49994847
   0.66997392  0.65028241  0.50067842
   0.84499536  0.84253248  0.49901057
Direct configuration=    38
   0.17286310  0.16560105  0.50000859
   0.31940790  0.33941425  0.49677853
   0.15257113  0.66604087  0.50079439
   0.31548596  0.83106941  0.49891222
   0.68342574  0.17318666  0.50243302
   0.83858980  0.33417290  0.49962670
   0.66886012  0.65146806  0.50071772
   0.84568830  0.84252275  0.49895551
Direct configuration=    39
   0.17284881  0.16489957  0.50014927
   0.31758460  0.34152996  0.49665242
   0.15287545  0.66433577  0.50079794
   0.31584715  0.83158783  0.49895820
   0.68485910  0.17105583  0.50268543
   0.83896416  0.33446281  0.49931530
   0.66770542  0.65280360  0.50074687
   0.84620773  0.84280012  0.49892094
Direct configuration=    40
   0.17290872  0.16378431  0.50027455
   0.31571197  0.34362859  0.49656029
   0.15328345  0.66265393  0.50077978
   0.31614263  0.83251624  0.49901736
   0.68649874  0.16850233  0.50290295
   0.83924237  0.33484619  0.49901858
   0.66654023  0.65422799  0.50076479
   0.84656472  0.84331542  0.49890777
Direct configuration=    41
   0.17300419  0.16233052  0.50038190
   0.31386285  0.34556920  0.49650265
   0.15373494  0.66111786  0.50074097
   0.31640201  0.83379874  0.49908975
   0.68830126  0.16563786  0.50308309
   0.83940865  0.33534538  0.49874073
   0.66539527  0.65567999  0.50077042
   0.84678412  0.84399493  0.49891626
Direct configuration=    42
   0.17308725  0.16064001  0.50046914
   0.31211013  0.34721305  0.49647950
   0.15416842  0.65984779  0.50068297
   0.31666430  0.83535401  0.49917512
   0.69020912  0.16259922  0.50322416
   0.83945047  0.33597596  0.49848575
   0.66429935  0.65710237  0.50076280
   0.84690480  0.84474161  0.49894601
Direct configuration=    43
   0.17310181  0.15883962  0.50053455
   0.31051951  0.34843732  0.49649052
   0.15452824  0.65894810  0.50060745
   0.31697706  0.83707615  0.49927296
   0.69215229  0.15954345  0.50332529
   0.83935981  0.33674430  0.49825725
   0.66327766  0.65844539  0.50074121
   0.84697802  0.84543930  0.49899591
Direct configuration=    44
   0.17298567  0.15707723  0.50057688
   0.30914162  0.34915007  0.49653518
   0.15477262  0.65849254  0.50051611
   0.31739474  0.83883790  0.49938237
   0.69405207  0.15663956  0.50338644
   0.83913397  0.33764613  0.49805840
   0.66235042  0.65966942  0.50070520
   0.84706383  0.84596050  0.49906425
Direct configuration=    45
   0.17267409  0.15551333  0.50059542
   0.30800560  0.34930309  0.49661285
   0.15488032  0.65851156  0.50041054
   0.31797545  0.84049819  0.49950216
   0.69582745  0.15405552  0.50340822
   0.83877587  0.33866607  0.49789180
   0.66153214  0.66074648  0.50065467
   0.84722457  0.84617892  0.49914887
Direct configuration=    46
   0.17210524  0.15430790  0.50058998
   0.30711562  0.34889900  0.49672292
   0.15485430  0.65898531  0.50029212
   0.31877559  0.84191456  0.49963086
   0.69740365  0.15194122  0.50339167
   0.83829409  0.33977788  0.49775939
   0.66083128  0.66166102  0.50058989
   0.84751622  0.84598616  0.49924739
Direct configuration=    47
   0.17122765  0.15360305  0.50056079
   0.30645173  0.34799033  0.49686463
   0.15472129  0.65984475  0.50016216
   0.31984250  0.84295993  0.49976681
   0.69872185  0.15040946  0.50333797
   0.83770283  0.34094510  0.49766245
   0.66024993  0.66241035  0.50051156
   0.84797866  0.84531010  0.49935755
Direct configuration=    48
   0.17000895  0.15350354  0.50050852
   0.30597435  0.34667081  0.49703702
   0.15452709  0.66098074  0.50002197
   0.32120594  0.84354123  0.49990822
   0.69974703  0.14952085  0.50324825
   0.83702147  0.34212257  0.49760156
   0.65978411  0.66300374  0.50042071
   0.84862790  0.84412969  0.49947738
Direct configuration=    49
   0.16844369  0.15406059  0.50043422
   0.30563134  0.34506133  0.49723869
   0.15432937  0.66225866  0.49987310
   0.32287031  0.84361529  0.50005322
   0.70047269  0.14927506  0.50312346
   0.83627393  0.34325823  0.49757661
   0.65942408  0.66346154  0.50031874
   0.84945183  0.84248266  0.49960530
Direct configuration=    50
   0.16655806  0.15526316  0.50033934
   0.30536510  0.34329455  0.49746769
   0.15418950  0.66353465  0.49971742
   0.32481023  0.84319693  0.50019983
   0.70092004  0.14961359  0.50296451
   0.83548754  0.34429582  0.49758685
   0.65915527  0.66381289  0.50020736
   0.85041191  0.84046190  0.49974005
Direct configuration=    51
   0.16440928  0.15704061  0.50022580
   0.30511855  0.34150166  0.49772146
   0.15416554  0.66466996  0.49955723
   0.32697148  0.84235602  0.50034594
   0.70113296  0.15043144  0.50277247
   0.83469145  0.34517827  0.49763095
   0.65895939  0.66409301  0.50008847
   0.85144947  0.83820258  0.49988046
Direct configuration=    52
   0.16207963  0.15927514  0.50009599
   0.30483938  0.33980228  0.49799689
   0.15430678  0.66554212  0.49939516
   0.32927717  0.84120471  0.50048926
   0.70117006  0.15159466  0.50254878
   0.83391470  0.34585159  0.49770705
   0.65881604  0.66433972  0.49996414
   0.85249491  0.83586332  0.50002526
Direct configuration=    53
   0.15966707  0.16181990  0.49995281
   0.30448267  0.33829800  0.49829036
   0.15465008  0.66605247  0.49923413
   0.33163728  0.83987919  0.50062736
   0.70109653  0.15295845  0.50229540
   0.83318392  0.34626929  0.49781288
   0.65870468  0.66458936  0.49983648
   0.85347704  0.83360682  0.50017286
Direct configuration=    54
   0.15727483  0.16451765  0.49979952
   0.30401225  0.33706896  0.49859798
   0.15521806  0.66613016  0.49907719
   0.33395909  0.83852104  0.50075771
   0.70097745  0.15438208  0.50201490
   0.83252111  0.34639664  0.49794580
   0.65860673  0.66487273  0.49970757
   0.85433040  0.83158413  0.50032134
Direct configuration=    55
   0.15500218  0.16721589  0.49963969
   0.30340140  0.33617238  0.49891567
   0.15601849  0.66573386  0.49892742
   0.33615602  0.83726242  0.50087780
   0.70087295  0.15573936  0.50171039
   0.83194174  0.34621429  0.49810295
   0.65850757  0.66521151  0.49957939
   0.85500021  0.82992360  0.50046844
Direct configuration=    56
   0.15293805  0.16977675  0.49947704
   0.30263327  0.33564218  0.49923935
   0.15704454  0.66485194  0.49878778
   0.33815365  0.83621666  0.50098527
   0.70083546  0.15692439  0.50138539
   0.83145355  0.34572073  0.49828122
   0.65839801  0.66561553  0.49945376
   0.85544468  0.82872503  0.50061168
Direct configuration=    57
   0.15115702  0.17208242  0.49931528
   0.30170113  0.33548905  0.49956502
   0.15827552  0.66350176  0.49866102
   0.33989299  0.83547353  0.50107794
   0.70090814  0.15785430  0.50104379
   0.83105622  0.34493314  0.49847737
   0.65827515  0.66608163  0.49933240
   0.85563577  0.82805723  0.50074841
Direct configuration=    58
   0.14971739  0.17403734  0.49915805
   0.30060860  0.33570069  0.49988888
   0.15967811  0.66172837  0.49854962
   0.34133159  0.83509804  0.50115391
   0.70112393  0.15847026  0.50068966
   0.83074189  0.34388649  0.49868799
   0.65814231  0.66659401  0.49921691
   0.85555883  0.82795770  0.50087594
Direct configuration=    59
   0.14866093  0.17556836  0.49900886
   0.29936965  0.33624206  0.50020739
   0.16120750  0.65960323  0.49845570
   0.34244325  0.83513112  0.50121154
   0.70150509  0.15873754  0.50032725
   0.83049648  0.34263113  0.49890948
   0.65800829  0.66712595  0.49910884
   0.85521212  0.82843338  0.50099162
Direct configuration=    60
   0.14801337  0.17662410  0.49887103
   0.29800834  0.33705590  0.50051731
   0.16280889  0.65722227  0.49838097
   0.34321699  0.83559129  0.50124945
   0.70206273  0.15864548  0.49996088
   0.83030154  0.34122915  0.49913808
   0.65788597  0.66764264  0.49900975
   0.85460612  0.82946179  0.50109294
Direct configuration=    61
   0.14778526  0.17717430  0.49874766
   0.29655789  0.33806429  0.50081575
   0.16441942  0.65470315  0.49832668
   0.34365580  0.83647625  0.50126653
   0.70279635  0.15820769  0.49959487
   0.83013625  0.33974991  0.49936984
   0.65779052  0.66810482  0.49892121
   0.85376308  0.83099208  0.50117757
Direct configuration=    62
   0.14797289  0.17720957  0.49864162
   0.29505896  0.33917183  0.50110019
   0.16597065  0.65218054  0.49829360
   0.34377547  0.83776402  0.50126196
   0.70369343  0.15746256  0.49923343
   0.82997903  0.33826612  0.49960070
   0.65773801  0.66847172  0.49884481
   0.85271674  0.83294597  0.50124351
Direct configuration=    63
   0.14855900  0.17674163  0.49855548
   0.29355669  0.34027156  0.50136853
   0.16739211  0.64979898  0.49828198
   0.34360379  0.83941349  0.50123522
   0.70472931  0.15647334  0.49888056
   0.82980899  0.33684964  0.49982653
   0.65774390  0.66870430  0.49878211
   0.85151202  0.83521916  0.50128913
Direct configuration=    64
   0.14951319  0.17580427  0.49849148
   0.29209663  0.34125424  0.50161903
   0.16861578  0.64770229  0.49829161
   0.34318005  0.84136414  0.50118611
   0.70586773  0.15532729  0.49853986
   0.82960711  0.33556781  0.50004320
   0.65782181  0.66876791  0.49873458
   0.85020415  0.83768393  0.50131334
Direct configuration=    65
   0.15079206  0.17445462  0.49845145
   0.29071972  0.34202039  0.50185025
   0.16958154  0.64602030  0.49832194
   0.34255496  0.84353526  0.50111488
   0.70706223  0.15413254  0.49821448
   0.82935704  0.33448018  0.50024675
   0.65798256  0.66863460  0.49870353
   0.84885699  0.84019373  0.50131562
Direct configuration=    66
   0.15233926  0.17277415  0.49843676
   0.28945729  0.34249365  0.50206091
   0.17024237  0.64485488  0.49837223
   0.34179039  0.84582523  0.50102216
   0.70825918  0.15301182  0.49790699
   0.82904583  0.33363580  0.50043343
   0.65823349  0.66828507  0.49869002
   0.84753996  0.84259078  0.50129608
Direct configuration=    67
   0.15408620  0.17086848  0.49844829
   0.28832714  0.34263213  0.50224975
   0.17056835  0.64426828  0.49844171
   0.34095857  0.84811179  0.50090906
   0.70940231  0.15209225  0.49761937
   0.82866427  0.33307119  0.50059988
   0.65857809  0.66771006  0.49869478
   0.84632351  0.84471695  0.50125543
Direct configuration=    68
   0.15595373  0.16886495  0.49848638
   0.28733128  0.34243594  0.50241545
   0.17054897  0.64427540  0.49852973
   0.34014023  0.85025456  0.50077711
   0.71043906  0.15149115  0.49735320
   0.82820755  0.33280828  0.50074316
   0.65901568  0.66691203  0.49871815
   0.84527264  0.84642858  0.50119479
Direct configuration=    69
   0.15785580  0.16690645  0.49855086
   0.28645616  0.34194772  0.50255659
   0.17019287  0.64484338  0.49863584
   0.33942080  0.85210108  0.50062822
   0.71132811  0.15129913  0.49710975
   0.82767596  0.33285301  0.50086087
   0.65954081  0.66590644  0.49876003
   0.84443937  0.84761351  0.50111549
Direct configuration=    70
   0.15970516  0.16514073  0.49864113
   0.28567626  0.34124533  0.50267176
   0.16952420  0.64589921  0.49875970
   0.33888460  0.85349725  0.50046458
   0.71204539  0.15156474  0.49689030
   0.82707617  0.33319374  0.50095121
   0.66014223  0.66472340  0.49881985
   0.84385656  0.84820611  0.50101881
Direct configuration=    71
   0.16142070  0.16370715  0.49875628
   0.28496081  0.34042887  0.50275967
   0.16857591  0.64734282  0.49890099
   0.33860713  0.85430101  0.50028850
   0.71258538  0.15228662  0.49669629
   0.82642330  0.33379890  0.50101298
   0.66080161  0.66340969  0.49889661
   0.84353648  0.84819523  0.50090569
Direct configuration=    72
   0.16293770  0.16271771  0.49889523
   0.28427896  0.33960610  0.50281934
   0.16738427  0.64906195  0.49905921
   0.33864481  0.85440125  0.50010229
   0.71296064  0.15341353  0.49652940
   0.82574150  0.33461700  0.50104561
   0.66149290  0.66202859  0.49898885
   0.84347128  0.84762394  0.50077676
Direct configuration=    73
   0.16421865  0.16223652  0.49905668
   0.28359905  0.33888350  0.50285029
   0.16598864  0.65094175  0.49923347
   0.33902500  0.85373781  0.49990823
   0.71320317  0.15484934  0.49639139
   0.82506234  0.33558146  0.50104916
   0.66218315  0.66065583  0.49909472
   0.84363286  0.84658356  0.50063242
Direct configuration=    74
   0.16525927  0.16226691  0.49923911
   0.28288873  0.33835886  0.50285266
   0.16443064  0.65287279  0.49942237
   0.33974050  0.85231408  0.49970862
   0.71336108  0.15646587  0.49628385
   0.82442313  0.33661554  0.50102432
   0.66283369  0.65937496  0.49921202
   0.84397666  0.84520040  0.50047310
Direct configuration=    75
   0.16608748  0.16275166  0.49944062
   0.28211894  0.33811284  0.50282716
   0.16275054  0.65475931  0.49962397
   0.34075032  0.85019755  0.49950583
   0.71348957  0.15812241  0.49620799
   0.82386523  0.33763575  0.50097230
   0.66340209  0.65827281  0.49933832
   0.84445041  0.84361668  0.50029951
Direct configuration=    76
   0.16675558  0.16358571  0.49965885
   0.28126865  0.33820207  0.50277509
   0.16098308  0.65652562  0.49983589
   0.34198679  0.84750841  0.49930247
   0.71364144  0.15968428  0.49616454
   0.82343172  0.33855601  0.50089474
   0.66384527  0.65743390  0.49947105
   0.84500287  0.84197264  0.50011271
Direct configuration=    77
   0.16732956  0.16463388  0.49989094
   0.28032595  0.33865693  0.50269814
   0.15915686  0.65811804  0.50005547
   0.34336595  0.84440263  0.49910143
   0.71386254  0.16103497  0.49615367
   0.82316331  0.33929566  0.50079355
   0.66412404  0.65693140  0.49960764
   0.84558799  0.84039476  0.49991415
Direct configuration=    78
   0.16787809  0.16574997  0.50013353
   0.27928698  0.33948296  0.50259840
   0.15729541  0.65950327  0.50027983
   0.34479896  0.84105307  0.49890584
   0.71419061  0.16208139  0.49617498
   0.82309366  0.33978885  0.50067080
   0.66420769  0.65681797  0.49974556
   0.84616560  0.83899044  0.49970566
Direct configuration=    79
   0.16846371  0.16679279  0.50038284
   0.27815539  0.34066276  0.50247826
   0.15541783  0.66066680  0.50050597
   0.34620115  0.83763332  0.49871899
   0.71465480  0.16275598  0.49622751
   0.82324537  0.33999222  0.50052875
   0.66407796  0.65711827  0.49988243
   0.84670156  0.83784543  0.49948946
Direct configuration=    80
   0.16913707  0.16763795  0.50063481
   0.27694186  0.34215777  0.50234030
   0.15353912  0.66161107  0.50073083
   0.34749826  0.83430577  0.49854415
   0.71527540  0.16301756  0.49630986
   0.82362711  0.33989005  0.50036976
   0.66373211  0.65782412  0.50001603
   0.84716761  0.83702284  0.49926806
Direct configuration=    81
   0.16993434  0.16818486  0.50088523
   0.27566362  0.34391044  0.50218723
   0.15167029  0.66235357  0.50095140
   0.34862971  0.83121424  0.49838449
   0.71606380  0.16285092  0.49642020
   0.82423244  0.33949558  0.50019637
   0.66318382  0.65889394  0.50014429
   0.84754127  0.83656318  0.49904422
Direct configuration=    82
   0.17087700  0.16835919  0.50112988
   0.27434367  0.34584678  0.50202181
   0.14981877  0.66292449  0.50116470
   0.34954941  0.82848058  0.49824291
   0.71702277  0.16226576  0.49655635
   0.82504081  0.33884803  0.50001127
   0.66246194  0.66025654  0.50026521
   0.84780565  0.83648493  0.49882090
Direct configuration=    83
   0.17197296  0.16811319  0.50136462
   0.27300969  0.34787979  0.50184683
   0.14798888  0.66336398  0.50136792
   0.35022545  0.82620334  0.49812201
   0.71814656  0.16129562  0.49671583
   0.82601993  0.33800681  0.49981738
   0.66160755  0.66181812  0.50037691
   0.84794973  0.83678502  0.49860116
Direct configuration=    84
   0.17321823  0.16742455  0.50158546
   0.27169248  0.34991373  0.50166502
   0.14618267  0.66371858  0.50155836
   0.35063908  0.82445746  0.49802405
   0.71942107  0.15999678  0.49689592
   0.82712916  0.33704400  0.49961782
   0.66066995  0.66347118  0.50047748
   0.84796872  0.83743920  0.49838818
Direct configuration=    85
   0.17459855  0.16629482  0.50178866
   0.27042408  0.35184964  0.50147902
   0.14440122  0.66403671  0.50173353
   0.35078378  0.82329425  0.49795092
   0.72082411  0.15844693  0.49709369
   0.82832309  0.33603670  0.49941590
   0.65970243  0.66510358  0.50056511
   0.84786475  0.83840253  0.49818511
Direct configuration=    86
   0.17609051  0.16474805  0.50197079
   0.26923533  0.35359224  0.50129140
   0.14264613  0.66436319  0.50189115
   0.35066468  0.82274078  0.49790411
   0.72232589  0.15674275  0.49730612
   0.82955492  0.33506024  0.49921502
   0.65875801  0.66660698  0.50063800
   0.84764715  0.83961065  0.49799500
Direct configuration=    87
   0.17766228  0.16282989  0.50212879
   0.26815310  0.35505722  0.50110458
   0.14092151  0.66473338  0.50202917
   0.35029838  0.82279897  0.49788468
   0.72389015  0.15499662  0.49753015
   0.83077928  0.33418311  0.49901866
   0.65788615  0.66788337  0.50069451
   0.84733242  0.84098209  0.49782072
Direct configuration=    88
   0.17927404  0.16060727  0.50226006
   0.26719740  0.35617866  0.50092090
   0.13923597  0.66516747  0.50214578
   0.34971299  0.82344400  0.49789322
   0.72547610  0.15333095  0.49776280
   0.83195415  0.33346340  0.49883024
   0.65713025  0.66885000  0.50073317
   0.84694309  0.84242268  0.49766480
Direct configuration=    89
   0.18087832  0.15816826  0.50236255
   0.26637906  0.35691442  0.50074260
   0.13760400  0.66566673  0.50223937
   0.34894820  0.82462280  0.49792980
   0.72704148  0.15187029  0.49800123
   0.83304211  0.33294670  0.49865307
   0.65652609  0.66944276  0.50075270
   0.84650551  0.84383225  0.49752939
Direct configuration=    90
   0.18242038  0.15562224  0.50243476
   0.26569861  0.35724858  0.50057182
   0.13604636  0.66621236  0.50230851
   0.34805538  0.82625251  0.49799396
   0.72854613  0.15073180  0.49824279
   0.83401095  0.33266505  0.49849028