   2   2   0   0
  0.5465585E+02  0.2506002E-09  0.3035230E-09  0.2000000E-08  0.5000000E-15
  1.000000000000000E-004
  CAR 
 unknown system                          
     11.35875541    -23.50766738  301     -2.23551756      1.00000000
    -23.508  0.0000E+00  0.0000E+00
    -23.391  0.0000E+00  0.0000E+00
    -23.275  0.0000E+00  0.0000E+00
    -23.159  0.0000E+00  0.0000E+00
    -23.043  0.0000E+00  0.0000E+00
    -22.927  0.0000E+00  0.0000E+00
    -22.810  0.0000E+00  0.0000E+00
    -22.694  0.0000E+00  0.0000E+00
    -22.578  0.0000E+00  0.0000E+00
    -22.462  0.9075E-16  0.1055E-16
    -22.345  0.8159E-11  0.9482E-12
    -22.229  0.5268E-07  0.6124E-08
    -22.113  0.2560E-04  0.2981E-05
    -21.997  0.1034E-02  0.1232E-03
    -21.881  0.4138E-02  0.6041E-03
    -21.764  0.1882E-02  0.8229E-03
    -21.648  0.8928E-04  0.8333E-03
    -21.532  0.3669E-06  0.8333E-03
    -21.416  0.1158E-09  0.8333E-03
    -21.299  0.2648E-14  0.8333E-03
    -21.183  0.3525E-12  0.8333E-03
    -21.067  0.4996E-08  0.8333E-03
    -20.951  0.5234E-05  0.8339E-03
    -20.835  0.4389E-03  0.8850E-03
    -20.718  0.3441E-02  0.1285E-02
    -20.602  0.2997E-02  0.1633E-02
    -20.486  0.3145E-03  0.1670E-02
    -20.370  0.1102E-02  0.1798E-02
    -20.253  0.4166E-02  0.2282E-02
    -20.137  0.1795E-02  0.2491E-02
    -20.021  0.1980E-03  0.2514E-02
    -19.905  0.2123E-02  0.2761E-02
    -19.789  0.4040E-02  0.3230E-02
    -19.672  0.8709E-03  0.3331E-02
    -19.556  0.1836E-04  0.3333E-02
    -19.440  0.7249E-07  0.3333E-02
    -19.324  0.2155E-04  0.3336E-02
    -19.207  0.9466E-03  0.3446E-02
    -19.091  0.4091E-02  0.3921E-02
    -18.975  0.2007E-02  0.4155E-02
    -18.859  0.1033E-03  0.4167E-02
    -18.743  0.4632E-06  0.4167E-02
    -18.626  0.1600E-09  0.4167E-02
    -18.510  0.1606E-13  0.4167E-02
    -18.394  0.3759E-09  0.4167E-02
    -18.278  0.8541E-06  0.4167E-02
    -18.161  0.1507E-03  0.4184E-02
    -18.045  0.2353E-02  0.4458E-02
    -17.929  0.3917E-02  0.4913E-02
    -17.813  0.7977E-03  0.5006E-02
    -17.697  0.1606E-02  0.5192E-02
    -17.580  0.4210E-02  0.5682E-02
    -17.464  0.1268E-02  0.5829E-02
    -17.348  0.3844E-04  0.5833E-02
    -17.232  0.9809E-07  0.5833E-02
    -17.115  0.1894E-10  0.5833E-02
    -16.999  0.2627E-15  0.5833E-02
    -16.883  0.5824E-14  0.5833E-02
    -16.767  0.2139E-09  0.5833E-02
    -16.651  0.5707E-06  0.5833E-02
    -16.534  0.1176E-03  0.5847E-02
    -16.418  0.2122E-02  0.6094E-02
    -16.302  0.4040E-02  0.6563E-02
    -16.186  0.8715E-03  0.6665E-02
    -16.069  0.1839E-04  0.6667E-02
    -15.953  0.3229E-07  0.6667E-02
    -15.837  0.7777E-06  0.6667E-02
    -15.721  0.1423E-03  0.6683E-02
    -15.605  0.2298E-02  0.6950E-02
    -15.488  0.3954E-02  0.7410E-02
    -15.372  0.1230E-02  0.7553E-02
    -15.256  0.3511E-02  0.7961E-02
    -15.140  0.2933E-02  0.8302E-02
    -15.024  0.2685E-03  0.8333E-02
    -14.907  0.2236E-05  0.8333E-02
    -14.791  0.1467E-08  0.8333E-02
    -14.675  0.7065E-13  0.8333E-02
    -14.559  0.0000E+00  0.8333E-02
    -14.442  0.2309E-16  0.8333E-02
    -14.326  0.2739E-11  0.8333E-02
    -14.210  0.2339E-07  0.8333E-02
    -14.094  0.1493E-04  0.8335E-02
    -13.978  0.7812E-03  0.8426E-02
    -13.861  0.4066E-02  0.8898E-02
    -13.745  0.4281E-02  0.9396E-02
    -13.629  0.4229E-02  0.9888E-02
    -13.513  0.9464E-03  0.9997E-02
    -13.396  0.2183E-04  0.1000E-01
    -13.280  0.8170E-04  0.1001E-01
    -13.164  0.1809E-02  0.1022E-01
    -13.048  0.4162E-02  0.1070E-01
    -12.932  0.1089E-02  0.1083E-01
    -12.815  0.2835E-04  0.1083E-01
    -12.699  0.6155E-07  0.1083E-01
    -12.583  0.1007E-10  0.1083E-01
    -12.467  0.1178E-15  0.1083E-01
    -12.350  0.0000E+00  0.1083E-01
    -12.234  0.0000E+00  0.1083E-01
    -12.118  0.0000E+00  0.1083E-01
    -12.002  0.4020E-16  0.1083E-01
    -11.886  0.4288E-11  0.1083E-01
    -11.769  0.3268E-07  0.1083E-01
    -11.653  0.1866E-04  0.1084E-01
    -11.537  0.8782E-03  0.1094E-01
    -11.421  0.4045E-02  0.1141E-01
    -11.304  0.2111E-02  0.1165E-01
    -11.188  0.1163E-03  0.1167E-01
    -11.072  0.4297E-04  0.1167E-01
    -10.956  0.1815E-02  0.1188E-01
    -10.840  0.8026E-02  0.1282E-01
    -10.723  0.4211E-02  0.1330E-01
    -10.607  0.2449E-03  0.1333E-01
    -10.491  0.1317E-05  0.1333E-01
    -10.375  0.5733E-09  0.1333E-01
    -10.258  0.1221E-08  0.1333E-01
    -10.142  0.2149E-05  0.1333E-01
    -10.026  0.3159E-03  0.1337E-01
     -9.910  0.4553E-02  0.1390E-01
     -9.794  0.7779E-02  0.1480E-01
     -9.677  0.2301E-02  0.1507E-01
     -9.561  0.3838E-02  0.1552E-01
     -9.445  0.2538E-02  0.1581E-01
     -9.329  0.1822E-03  0.1583E-01
     -9.212  0.1236E-05  0.1583E-01
     -9.096  0.3049E-04  0.1584E-01
     -8.980  0.1130E-02  0.1597E-01
     -8.864  0.4188E-02  0.1645E-01
     -8.748  0.2445E-02  0.1674E-01
     -8.631  0.3938E-02  0.1720E-01
     -8.515  0.2443E-02  0.1748E-01
     -8.399  0.2667E-03  0.1751E-01
     -8.283  0.2725E-02  0.1783E-01
     -8.166  0.8239E-02  0.1879E-01
     -8.050  0.3139E-02  0.1915E-01
     -7.934  0.1364E-03  0.1917E-01
     -7.818  0.5587E-06  0.1917E-01
     -7.702  0.1417E-06  0.1917E-01
     -7.585  0.4872E-04  0.1917E-01
     -7.469  0.1425E-02  0.1934E-01
     -7.353  0.4502E-02  0.1986E-01
     -7.237  0.4406E-02  0.2037E-01
     -7.120  0.3506E-02  0.2078E-01
     -7.004  0.4464E-03  0.2083E-01
     -6.888  0.5389E-05  0.2083E-01
     -6.772  0.5479E-07  0.2083E-01
     -6.656  0.2459E-04  0.2084E-01
     -6.539  0.1013E-02  0.2095E-01
     -6.423  0.4141E-02  0.2144E-01
     -6.307  0.2612E-02  0.2174E-01
     -6.191  0.4171E-02  0.2222E-01
     -6.074  0.5072E-02  0.2281E-01
     -5.958  0.3882E-02  0.2326E-01
     -5.842  0.5868E-03  0.2333E-01
     -5.726  0.8780E-05  0.2333E-01
     -5.610  0.1091E-07  0.2333E-01
     -5.493  0.6650E-06  0.2333E-01
     -5.377  0.1292E-03  0.2335E-01
     -5.261  0.2208E-02  0.2361E-01
     -5.145  0.3997E-02  0.2407E-01
     -5.028  0.8186E-03  0.2416E-01
     -4.912  0.1632E-04  0.2417E-01
     -4.796  0.2674E-07  0.2417E-01
     -4.680  0.3276E-11  0.2417E-01
     -4.564  0.2866E-16  0.2417E-01
     -4.447  0.0000E+00  0.2417E-01
     -4.331  0.2487E-13  0.2417E-01
     -4.215  0.6578E-09  0.2417E-01
     -4.099  0.1271E-05  0.2417E-01
     -3.982  0.1918E-03  0.2419E-01
     -3.866  0.2589E-02  0.2449E-01
     -3.750  0.3764E-02  0.2493E-01
     -3.634  0.6149E-03  0.2500E-01
     -3.518  0.9252E-04  0.2501E-01
     -3.401  0.1821E-02  0.2522E-01
     -3.285  0.4158E-02  0.2570E-01
     -3.169  0.1080E-02  0.2583E-01
     -3.053  0.2801E-04  0.2583E-01
     -2.936  0.5146E-04  0.2584E-01
     -2.820  0.1459E-02  0.2601E-01
     -2.704  0.4221E-02  0.2650E-01
     -2.588  0.1391E-02  0.2666E-01
     -2.472  0.4655E-04  0.2667E-01
     -2.355  0.1318E-06  0.2667E-01
     -2.239  0.2834E-10  0.2667E-01
     -2.123  0.3426E-11  0.2667E-01
     -2.007  0.2764E-07  0.2667E-01
     -1.890  0.1671E-04  0.2667E-01
     -1.774  0.8408E-03  0.2677E-01
     -1.658  0.4782E-02  0.2732E-01
     -1.542  0.8122E-02  0.2827E-01
     -1.426  0.9980E-02  0.2943E-01
     -1.309  0.4552E-02  0.2996E-01
     -1.193  0.3831E-03  0.3000E-01
     -1.077  0.3578E-05  0.3000E-01
     -0.961  0.2803E-08  0.3000E-01
     -0.844  0.1638E-12  0.3000E-01
     -0.728  0.1496E-11  0.3000E-01
     -0.612  0.1487E-07  0.3000E-01
     -0.496  0.1101E-04  0.3000E-01
     -0.380  0.6629E-03  0.3008E-01
     -0.263  0.3830E-02  0.3052E-01
     -0.147  0.2491E-02  0.3081E-01
     -0.031  0.1738E-03  0.3083E-01
      0.085  0.1053E-04  0.3083E-01
      0.202  0.6101E-03  0.3091E-01
      0.318  0.3757E-02  0.3134E-01
      0.434  0.2598E-02  0.3164E-01
      0.550  0.1936E-03  0.3167E-01
      0.666  0.6522E-05  0.3167E-01
      0.783  0.5597E-03  0.3173E-01
      0.899  0.5812E-02  0.3241E-01
      1.015  0.7267E-02  0.3325E-01
      1.131  0.4033E-02  0.3372E-01
      1.247  0.3409E-02  0.3412E-01
      1.364  0.4197E-03  0.3417E-01
      1.480  0.1816E-04  0.3417E-01
      1.596  0.7349E-03  0.3425E-01
      1.712  0.3917E-02  0.3471E-01
      1.829  0.2556E-02  0.3501E-01
      1.945  0.2857E-02  0.3534E-01
      2.061  0.5527E-02  0.3598E-01
      2.177  0.6893E-02  0.3678E-01
      2.293  0.5249E-02  0.3739E-01
      2.410  0.9777E-03  0.3751E-01
      2.526  0.1616E-02  0.3769E-01
      2.642  0.4209E-02  0.3818E-01
      2.758  0.1263E-02  0.3833E-01
      2.875  0.1014E-03  0.3834E-01
      2.991  0.1828E-02  0.3855E-01
      3.107  0.7757E-02  0.3945E-01
      3.223  0.1144E-01  0.4078E-01
      3.339  0.6991E-02  0.4160E-01
      3.456  0.2659E-02  0.4191E-01
      3.572  0.4187E-02  0.4239E-01
      3.688  0.2677E-02  0.4270E-01
      3.804  0.4242E-02  0.4320E-01
      3.921  0.2287E-02  0.4346E-01
      4.037  0.4204E-02  0.4395E-01
      4.153  0.1814E-02  0.4416E-01
      4.269  0.1734E-02  0.4436E-01
      4.385  0.7891E-02  0.4528E-01
      4.502  0.4474E-02  0.4580E-01
      4.618  0.4611E-03  0.4585E-01
      4.734  0.2521E-02  0.4615E-01
      4.850  0.4424E-02  0.4666E-01
      4.967  0.4404E-02  0.4717E-01
      5.083  0.2618E-02  0.4748E-01
      5.199  0.1953E-03  0.4750E-01
      5.315  0.1310E-05  0.4750E-01
      5.431  0.2153E-07  0.4750E-01
      5.548  0.1382E-04  0.4750E-01
      5.664  0.7492E-03  0.4759E-01
      5.780  0.3931E-02  0.4805E-01
      5.896  0.2329E-02  0.4832E-01
      6.013  0.1469E-03  0.4833E-01
      6.129  0.8193E-06  0.4833E-01
      6.245  0.3546E-09  0.4833E-01
      6.361  0.1118E-13  0.4833E-01
      6.477  0.2334E-12  0.4833E-01
      6.594  0.3653E-08  0.4833E-01
      6.710  0.4218E-05  0.4833E-01
      6.826  0.3885E-03  0.4838E-01
      6.942  0.3402E-02  0.4877E-01
      7.059  0.4990E-02  0.4935E-01
      7.175  0.4476E-02  0.4987E-01
      7.291  0.1384E-02  0.5004E-01
      7.407  0.3168E-02  0.5040E-01
      7.523  0.3308E-02  0.5079E-01
      7.640  0.3855E-03  0.5083E-01
      7.756  0.4617E-05  0.5083E-01
      7.872  0.1015E-03  0.5085E-01
      7.988  0.1991E-02  0.5108E-01
      8.105  0.4098E-02  0.5155E-01
      8.221  0.9572E-03  0.5166E-01
      8.337  0.2479E-04  0.5167E-01
      8.453  0.3042E-03  0.5170E-01
      8.569  0.3063E-02  0.5206E-01
      8.686  0.3382E-02  0.5245E-01
      8.802  0.4141E-03  0.5250E-01
      8.918  0.4723E-05  0.5250E-01
      9.034  0.4304E-08  0.5250E-01
      9.151  0.2896E-12  0.5250E-01
      9.267  0.2648E-14  0.5250E-01
      9.383  0.1158E-09  0.5250E-01
      9.499  0.3669E-06  0.5250E-01
      9.615  0.8928E-04  0.5251E-01
      9.732  0.1882E-02  0.5273E-01
      9.848  0.4138E-02  0.5321E-01
      9.964  0.1034E-02  0.5333E-01
     10.080  0.2560E-04  0.5333E-01
     10.197  0.5268E-07  0.5333E-01
     10.313  0.8159E-11  0.5333E-01
     10.429  0.9075E-16  0.5333E-01
     10.545  0.0000E+00  0.5333E-01
     10.661  0.0000E+00  0.5333E-01
     10.778  0.0000E+00  0.5333E-01
     10.894  0.0000E+00  0.5333E-01
     11.010  0.0000E+00  0.5333E-01
     11.126  0.0000E+00  0.5333E-01
     11.243  0.0000E+00  0.5333E-01
     11.359  0.0000E+00  0.5333E-01
