    2    2  300    1
  0.5465585E+02  0.2506002E-09  0.3035230E-09  0.2000000E-08  0.5000000E-15
  1.000000000000000E-004
  CAR 
 unknown system                          
      8      8      8
 
  0.1250000E+00  0.1250000E+00  0.0000000E+00  0.1250000E+00
    1      -21.922830   1.000000
    2      -10.886383   1.000000
    3       -9.896981   1.000000
    4       -1.493039   0.000000
    5        0.921455   0.000000
    6        1.685050   0.000000
    7        1.963511   0.000000
    8        2.110079   0.000000
 
  0.3750000E+00  0.1250000E+00  0.0000000E+00  0.1250000E+00
    1      -19.129485   1.000000
    2      -13.706882   1.000000
    3       -6.464437   1.000000
    4       -6.215957   1.000000
    5       -1.690414   0.000000
    6        0.297892   0.000000
    7        4.947024   0.000000
    8        5.751996   0.000000
 
 -0.3750000E+00  0.1250000E+00  0.0000000E+00  0.1250000E+00
    1      -16.383588   1.000000
    2      -13.119270   1.000000
    3      -11.455550   1.000000
    4       -3.846135   1.000000
    5       -3.357093   1.000000
    6       -0.286509   0.000000
    7        8.574769   0.000000
    8        9.773918   0.000000
 
 -0.1250000E+00  0.1250000E+00  0.0000000E+00  0.1250000E+00
    1      -20.725775   1.000000
    2       -9.862312   1.000000
    3       -8.655960   1.000000
    4       -7.410897   1.000000
    5        1.137077   0.000000
    6        2.577818   0.000000
    7        3.214014   0.000000
    8        3.736435   0.000000
 
  0.1250000E+00  0.3750000E+00  0.0000000E+00  0.1250000E+00
    1      -20.298618   1.000000
    2      -10.863400   1.000000
    3       -8.910198   1.000000
    4       -8.203468   1.000000
    5        3.043058   0.000000
    6        3.121185   0.000000
    7        3.991096   0.000000
    8        4.342231   0.000000
 
  0.3750000E+00  0.3750000E+00  0.0000000E+00  0.1250000E+00
    1      -19.870262   1.000000
    2      -15.575543   1.000000
    3       -7.228650   1.000000
    4       -2.763403   1.000000
    5       -1.426307   0.000000
    6        3.495293   0.000000
    7        4.366309   0.000000
    8        4.756674   0.000000
 
 -0.3750000E+00  0.3750000E+00  0.0000000E+00  0.1250000E+00
    1      -18.017880   1.000000
    2      -15.265402   1.000000
    3       -8.237758   1.000000
    4       -5.229038   1.000000
    5       -1.567328   0.000000
    6        2.212333   0.000000
    7        6.939305   0.000000
    8        7.410019   0.000000
 
 -0.1250000E+00  0.3750000E+00  0.0000000E+00  0.1250000E+00
    1      -17.644518   1.000000
    2      -13.891146   1.000000
    3       -9.582779   1.000000
    4       -6.056212   1.000000
    5        0.896252   0.000000
    6        3.228785   0.000000
    7        7.101672   0.000000
    8        8.027069   0.000000
