       N       E                     dE             d eps       ncg     rms          rms(c)
DAV:   1     0.701341886841E+02    0.70134E+02   -0.34164E+03   128   0.791E+02
DAV:   2    -0.118140173401E+02   -0.81948E+02   -0.70073E+02   192   0.143E+02
DAV:   3    -0.168168091363E+02   -0.50028E+01   -0.50028E+01   216   0.574E+01
DAV:   4    -0.168428635487E+02   -0.26054E-01   -0.26054E-01   184   0.421E+00
DAV:   5    -0.168428918346E+02   -0.28286E-04   -0.28286E-04   224   0.160E-01    0.761E+00
DAV:   6    -0.153522946964E+02    0.14906E+01   -0.17718E+00   200   0.110E+01    0.412E+00
DAV:   7    -0.148960332066E+02    0.45626E+00   -0.17739E+00   200   0.109E+01    0.116E+00
DAV:   8    -0.148863473493E+02    0.96859E-02   -0.45051E-02   224   0.211E+00    0.184E-01
DAV:   9    -0.148851862558E+02    0.11611E-02   -0.35659E-03   184   0.515E-01    0.890E-02
DAV:  10    -0.148839208703E+02    0.12654E-02   -0.10476E-03   208   0.226E-01    0.496E-02
DAV:  11    -0.148837812445E+02    0.13963E-03   -0.35499E-04   184   0.114E-01    0.352E-02
DAV:  12    -0.148844021855E+02   -0.62094E-03   -0.44065E-04   160   0.109E-01    0.188E-02
DAV:  13    -0.148845244498E+02   -0.12226E-03   -0.99981E-06   176   0.260E-02    0.113E-02
DAV:  14    -0.148852401637E+02   -0.71571E-03   -0.11501E-04   168   0.512E-02    0.746E-03
DAV:  15    -0.148853180235E+02   -0.77860E-04   -0.52049E-06   200   0.115E-02    0.272E-03
DAV:  16    -0.148853765134E+02   -0.58490E-04   -0.69405E-06   160   0.120E-02    0.162E-03
DAV:  17    -0.148853873171E+02   -0.10804E-04   -0.55693E-07   216   0.385E-03    0.129E-03
DAV:  18    -0.148853893466E+02   -0.20296E-05   -0.10057E-07   152   0.179E-03    0.534E-04
DAV:  19    -0.148853924868E+02   -0.31402E-05   -0.32034E-08   176   0.107E-03    0.439E-04
DAV:  20    -0.148853934797E+02   -0.99285E-06   -0.51488E-09   208   0.429E-04
   1 F= -.15045061E+02 E0= -.15045061E+02  d E =-.150451E+02
       N       E                     dE             d eps       ncg     rms          rms(c)
DAV:   1    -0.135612671788E+02    0.13241E+01   -0.57561E+02   128   0.210E+02    0.704E+00
DAV:   2    -0.135323109473E+02    0.28956E-01   -0.12858E+01   176   0.343E+01    0.339E+00
DAV:   3    -0.133420721342E+02    0.19024E+00   -0.54252E-01   216   0.577E+00    0.153E+00
DAV:   4    -0.133251460267E+02    0.16926E-01   -0.12019E-01   192   0.275E+00    0.343E-01
DAV:   5    -0.133255236859E+02   -0.37766E-03   -0.98692E-03   192   0.867E-01    0.130E-01
DAV:   6    -0.133257503532E+02   -0.22667E-03   -0.33866E-04   160   0.179E-01    0.228E-02
DAV:   7    -0.133257895405E+02   -0.39187E-04   -0.39988E-05   176   0.530E-02    0.111E-02
DAV:   8    -0.133258434073E+02   -0.53867E-04   -0.24353E-05   136   0.322E-02    0.633E-03
DAV:   9    -0.133258947417E+02   -0.51334E-04   -0.34162E-05   152   0.307E-02    0.339E-03
DAV:  10    -0.133259008439E+02   -0.61022E-05   -0.39754E-06   208   0.113E-02    0.183E-03
DAV:  11    -0.133259068137E+02   -0.59698E-05   -0.53857E-07   168   0.526E-03    0.883E-04
DAV:  12    -0.133259103702E+02   -0.35565E-05   -0.23316E-07   160   0.294E-03    0.319E-04
DAV:  13    -0.133259109443E+02   -0.57407E-06   -0.75138E-08   168   0.130E-03
   2 F= -.13454257E+02 E0= -.13454257E+02  d E =0.159080E+01
       N       E                     dE             d eps       ncg     rms          rms(c)
DAV:   1    -0.150956602370E+02   -0.17697E+01   -0.28116E+02   136   0.147E+02    0.472E+00
DAV:   2    -0.150995572179E+02   -0.38970E-02   -0.44941E+00   176   0.221E+01    0.277E+00
DAV:   3    -0.148918605187E+02    0.20770E+00   -0.56360E-01   200   0.673E+00    0.665E-01
DAV:   4    -0.148887627286E+02    0.30978E-02   -0.41767E-02   168   0.194E+00    0.323E-01
DAV:   5    -0.148886417344E+02    0.12099E-03   -0.16503E-03   160   0.370E-01    0.128E-01
DAV:   6    -0.148881270776E+02    0.51466E-03   -0.17043E-03   184   0.362E-01    0.327E-02
DAV:   7    -0.148881529247E+02   -0.25847E-04   -0.14652E-04   176   0.108E-01    0.325E-02
DAV:   8    -0.148882017434E+02   -0.48819E-04   -0.61024E-05   136   0.592E-02    0.757E-03
DAV:   9    -0.148882918685E+02   -0.90125E-04   -0.56588E-06   176   0.225E-02    0.554E-03
DAV:  10    -0.148883767555E+02   -0.84887E-04   -0.21772E-05   136   0.263E-02    0.348E-03
DAV:  11    -0.148884133029E+02   -0.36547E-04   -0.17324E-06   176   0.893E-03    0.236E-03
DAV:  12    -0.148884268991E+02   -0.13596E-04   -0.51125E-07   184   0.387E-03    0.707E-04
DAV:  13    -0.148884371106E+02   -0.10211E-04   -0.61096E-07   136   0.336E-03    0.104E-03
DAV:  14    -0.148884381953E+02   -0.10848E-05   -0.28477E-08   192   0.896E-04    0.304E-04
DAV:  15    -0.148884392986E+02   -0.11033E-05   -0.61206E-08   136   0.127E-03    0.252E-04
DAV:  16    -0.148884395503E+02   -0.25168E-06   -0.54282E-09   144   0.376E-04
   3 F= -.15047748E+02 E0= -.15047731E+02  d E =-.268752E-02
       N       E                     dE             d eps       ncg     rms          rms(c)
DAV:   1    -0.143439826820E+02    0.54446E+00   -0.12557E+02   128   0.107E+02    0.360E+00
DAV:   2    -0.141837907756E+02    0.16019E+00   -0.17635E+00   160   0.129E+01    0.178E+00
DAV:   3    -0.141295366148E+02    0.54254E-01   -0.23047E-01   200   0.418E+00    0.708E-01
DAV:   4    -0.141248348065E+02    0.47018E-02   -0.23464E-02   144   0.141E+00    0.389E-01
DAV:   5    -0.141243088937E+02    0.52591E-03   -0.21865E-03   192   0.405E-01    0.871E-02
DAV:   6    -0.141242525859E+02    0.56308E-04   -0.33978E-04   136   0.167E-01    0.220E-02
DAV:   7    -0.141243244716E+02   -0.71886E-04   -0.66607E-05   160   0.682E-02    0.861E-03
DAV:   8    -0.141243600768E+02   -0.35605E-04   -0.10115E-05   176   0.240E-02    0.615E-03
DAV:   9    -0.141244108791E+02   -0.50802E-04   -0.25419E-05   144   0.257E-02    0.446E-03
DAV:  10    -0.141244174662E+02   -0.65871E-05   -0.34256E-06   176   0.969E-03    0.247E-03
DAV:  11    -0.141244216536E+02   -0.41874E-05   -0.61670E-07   160   0.549E-03    0.135E-03
DAV:  12    -0.141244245042E+02   -0.28507E-05   -0.28369E-07   152   0.385E-03    0.101E-03
DAV:  13    -0.141244248082E+02   -0.30400E-06   -0.11242E-07   152   0.230E-03
   4 F= -.14258693E+02 E0= -.14249159E+02  d E =0.786368E+00
       N       E                     dE             d eps       ncg     rms          rms(c)
DAV:   1    -0.149923609738E+02   -0.86794E+00   -0.34491E+01   128   0.546E+01    0.155E+00
DAV:   2    -0.149649640461E+02    0.27397E-01   -0.28489E-01   208   0.565E+00    0.846E-01
DAV:   3    -0.149447854281E+02    0.20179E-01   -0.70740E-02   176   0.236E+00    0.131E-01
DAV:   4    -0.149452080947E+02   -0.42267E-03   -0.43349E-03   192   0.603E-01    0.979E-02
DAV:   5    -0.149451794667E+02    0.28628E-04   -0.14161E-04   152   0.104E-01    0.240E-02
DAV:   6    -0.149451893174E+02   -0.98507E-05   -0.62566E-05   176   0.701E-02    0.613E-03
DAV:   7    -0.149452170199E+02   -0.27702E-04   -0.10126E-05   136   0.268E-02    0.249E-03
DAV:   8    -0.149452304630E+02   -0.13443E-04   -0.92567E-07   192   0.707E-03    0.166E-03
DAV:   9    -0.149452581574E+02   -0.27694E-04   -0.36936E-06   136   0.902E-03    0.149E-03
DAV:  10    -0.149452683648E+02   -0.10207E-04   -0.15052E-07   184   0.291E-03    0.465E-04
DAV:  11    -0.149452717582E+02   -0.33934E-05   -0.45611E-08   192   0.117E-03    0.448E-04
DAV:  12    -0.149452752867E+02   -0.35285E-05   -0.96551E-08   168   0.148E-03    0.155E-04
DAV:  13    -0.149452756553E+02   -0.36856E-06   -0.76816E-09   208   0.487E-04
   5 F= -.15094077E+02 E0= -.15094077E+02  d E =-.490164E-01
       N       E                     dE             d eps       ncg     rms          rms(c)
DAV:   1    -0.150459359502E+02   -0.10066E+00   -0.42459E+00   136   0.195E+01    0.613E-01
DAV:   2    -0.150420870342E+02    0.38489E-02   -0.36881E-02   168   0.197E+00    0.323E-01
DAV:   3    -0.150395410489E+02    0.25460E-02   -0.87959E-03   192   0.846E-01    0.528E-02
DAV:   4    -0.150395873217E+02   -0.46273E-04   -0.55775E-04   184   0.212E-01    0.318E-02
DAV:   5    -0.150395829756E+02    0.43461E-05   -0.21966E-05   184   0.413E-02    0.114E-02
DAV:   6    -0.150395899503E+02   -0.69747E-05   -0.60073E-06   176   0.217E-02    0.270E-03
DAV:   7    -0.150396026035E+02   -0.12653E-04   -0.20973E-06   152   0.920E-03    0.154E-03
DAV:   8    -0.150396071819E+02   -0.45784E-05   -0.17106E-07   168   0.263E-03    0.108E-03
DAV:   9    -0.150396160208E+02   -0.88390E-05   -0.74057E-07   144   0.351E-03    0.377E-04
DAV:  10    -0.150396184964E+02   -0.24756E-05   -0.16451E-08   184   0.812E-04    0.233E-04
DAV:  11    -0.150396210935E+02   -0.25970E-05   -0.45063E-08   168   0.940E-04    0.168E-04
DAV:  12    -0.150396218433E+02   -0.74983E-06   -0.12593E-08   184   0.515E-04
   6 F= -.15192971E+02 E0= -.15192971E+02  d E =-.147910E+00
       N       E                     dE             d eps       ncg     rms          rms(c)
DAV:   1    -0.150428942741E+02   -0.32732E-02   -0.24386E-01   136   0.471E+00    0.160E-01
DAV:   2    -0.150426312456E+02    0.26303E-03   -0.23423E-03   152   0.490E-01    0.820E-02
DAV:   3    -0.150424689142E+02    0.16233E-03   -0.52944E-04   168   0.209E-01    0.148E-02
DAV:   4    -0.150424711367E+02   -0.22225E-05   -0.38648E-05   224   0.565E-02    0.797E-03
DAV:   5    -0.150424713497E+02   -0.21297E-06   -0.12419E-06   168   0.997E-03
   7 F= -.15196811E+02 E0= -.15196811E+02  d E =-.151750E+00
       N       E                     dE             d eps       ncg     rms          rms(c)
DAV:   1    -0.150662726350E+02   -0.23801E-01   -0.94646E+00   136   0.284E+01    0.664E-01
DAV:   2    -0.150636672341E+02    0.26054E-02   -0.85902E-02   176   0.312E+00    0.355E-01
DAV:   3    -0.150602688781E+02    0.33984E-02   -0.12431E-02   192   0.101E+00    0.595E-02
DAV:   4    -0.150603851629E+02   -0.11628E-03   -0.11570E-03   184   0.297E-01    0.352E-02
DAV:   5    -0.150603840098E+02    0.11531E-05   -0.27872E-05   144   0.507E-02    0.942E-03
DAV:   6    -0.150603860850E+02   -0.20752E-05   -0.46237E-06   160   0.188E-02    0.183E-03
DAV:   7    -0.150603884535E+02   -0.23685E-05   -0.44359E-07   152   0.619E-03    0.458E-04
DAV:   8    -0.150603895092E+02   -0.10557E-05   -0.38123E-08   192   0.166E-03    0.311E-04
DAV:   9    -0.150603927157E+02   -0.32065E-05   -0.17019E-07   136   0.184E-03    0.417E-04
DAV:  10    -0.150603932660E+02   -0.55026E-06   -0.51033E-09   208   0.387E-04
   8 F= -.15221221E+02 E0= -.15221221E+02  d E =-.244099E-01
       N       E                     dE             d eps       ncg     rms          rms(c)
DAV:   1    -0.150642184773E+02   -0.38258E-02   -0.40422E-01   128   0.590E+00    0.150E-01
DAV:   2    -0.150640860590E+02    0.13242E-03   -0.43346E-03   160   0.674E-01    0.783E-02
DAV:   3    -0.150639117630E+02    0.17430E-03   -0.54625E-04   200   0.213E-01    0.169E-02
DAV:   4    -0.150639149959E+02   -0.32329E-05   -0.60873E-05   168   0.699E-02    0.763E-03
DAV:   5    -0.150639152281E+02   -0.23218E-06   -0.25737E-06   168   0.149E-02
   9 F= -.15223063E+02 E0= -.15223063E+02  d E =-.262524E-01
       N       E                     dE             d eps       ncg     rms          rms(c)
DAV:   1    -0.150272431767E+02    0.36672E-01   -0.68504E+00   128   0.254E+01    0.551E-01
DAV:   2    -0.150264651164E+02    0.77806E-03   -0.47992E-02   160   0.222E+00    0.317E-01
DAV:   3    -0.150243841404E+02    0.20810E-02   -0.88066E-03   168   0.795E-01    0.668E-02
DAV:   4    -0.150244017942E+02   -0.17654E-04   -0.21632E-04   208   0.146E-01    0.390E-02
DAV:   5    -0.150244013442E+02    0.44999E-06   -0.35911E-05   176   0.530E-02    0.826E-03
DAV:   6    -0.150244109374E+02   -0.95932E-05   -0.35419E-06   176   0.177E-02    0.336E-03
DAV:   7    -0.150244237759E+02   -0.12839E-04   -0.11995E-06   152   0.677E-03    0.206E-03
DAV:   8    -0.150244315986E+02   -0.78227E-05   -0.83998E-07   136   0.477E-03    0.116E-03
DAV:   9    -0.150244438464E+02   -0.12248E-04   -0.10614E-06   144   0.469E-03    0.660E-04
DAV:  10    -0.150244467504E+02   -0.29040E-05   -0.22571E-08   200   0.114E-03    0.369E-04
DAV:  11    -0.150244508490E+02   -0.40985E-05   -0.10393E-07   152   0.137E-03    0.373E-04
DAV:  12    -0.150244513780E+02   -0.52904E-06   -0.52988E-09   208   0.337E-04
  10 F= -.15192648E+02 E0= -.15192648E+02  d E =0.304150E-01
       N       E                     dE             d eps       ncg     rms          rms(c)
DAV:   1    -0.150674329802E+02   -0.42982E-01   -0.37268E+00   128   0.188E+01    0.412E-01
DAV:   2    -0.150669119878E+02    0.52099E-03   -0.29306E-02   176   0.162E+00    0.233E-01
DAV:   3    -0.150658884615E+02    0.10235E-02   -0.37430E-03   192   0.528E-01    0.504E-02
DAV:   4    -0.150659117253E+02   -0.23264E-04   -0.12785E-04   176   0.107E-01    0.225E-02
DAV:   5    -0.150659287488E+02   -0.17024E-04   -0.12596E-05   168   0.307E-02    0.396E-03
DAV:   6    -0.150659380133E+02   -0.92645E-05   -0.11926E-06   184   0.922E-03    0.229E-03
DAV:   7    -0.150659534836E+02   -0.15470E-04   -0.33704E-06   160   0.889E-03    0.247E-03
DAV:   8    -0.150659553704E+02   -0.18868E-05   -0.11243E-07   192   0.239E-03    0.104E-03
DAV:   9    -0.150659604417E+02   -0.50712E-05   -0.10478E-06   144   0.417E-03    0.400E-04
DAV:  10    -0.150659609735E+02   -0.53185E-06   -0.24116E-08   200   0.892E-04
  11 F= -.15227500E+02 E0= -.15227500E+02  d E =-.443652E-02
       N       E                     dE             d eps       ncg     rms          rms(c)
DAV:   1    -0.150657758878E+02    0.18455E-03   -0.47596E-03   152   0.642E-01    0.158E-02
DAV:   2    -0.150657746401E+02    0.12476E-05   -0.50315E-05   192   0.710E-02    0.848E-03
DAV:   3    -0.150657726293E+02    0.20108E-05   -0.65209E-06   176   0.230E-02    0.156E-03
DAV:   4    -0.150657727134E+02   -0.84057E-07   -0.75376E-07   176   0.740E-03
  12 F= -.15227503E+02 E0= -.15227503E+02  d E =-.287874E-05
       N       E                     dE             d eps       ncg     rms          rms(c)
DAV:   1    -0.150658649347E+02   -0.92305E-04   -0.98147E-04   136   0.292E-01    0.728E-03
DAV:   2    -0.150658647094E+02    0.22531E-06   -0.11117E-05   176   0.334E-02    0.387E-03
DAV:   3    -0.150658642836E+02    0.42587E-06   -0.12018E-06   176   0.990E-03
  13 F= -.15227507E+02 E0= -.15227507E+02  d E =-.723321E-05
