 vasp.6.2.1 16May21 (build Oct 21 2023 21:03:18) complex                        
  
 executed on             LinuxIFC date 2024.06.16  02:24:30
 running on    2 total cores
 distrk:  each k-point on    2 cores,    1 groups
 distr:  one band on NCORE=   1 cores,    2 groups


--------------------------------------------------------------------------------------------------------


 INCAR:
   PREC = accurate
   ENCUT = 600
   EDIFF = 1e-06
   EDIFFG = 1e-05
   IBRION = 2
   ISIF = 2
   ISYM = 2
   ISMEAR = 0
   SIGMA = 0.1
   LREAL = False
   NPAR = 4
   NSW = 300
   ISTART = 0
   LVDW = True
   IVDW = 12
   LCHARG = False
   LPLANE = False
   LWAVE = False

 POTCAR:    PAW_PBE C 08Apr2002                   
 -----------------------------------------------------------------------------
|                                                                             |
|           W    W    AA    RRRRR   N    N  II  N    N   GGGG   !!!           |
|           W    W   A  A   R    R  NN   N  II  NN   N  G    G  !!!           |
|           W    W  A    A  R    R  N N  N  II  N N  N  G       !!!           |
|           W WW W  AAAAAA  RRRRR   N  N N  II  N  N N  G  GGG   !            |
|           WW  WW  A    A  R   R   N   NN  II  N   NN  G    G                |
|           W    W  A    A  R    R  N    N  II  N    N   GGGG   !!!           |
|                                                                             |
|     The value NPAR = 4 specified in the INCAR file was overwritten,         |
|     because it was not compatible with the 2 processes available:           |
|     NPAR = 2                                                                |
|     was used instead, please check that this makes sense for your           |
|     machine.                                                                |
|                                                                             |
 -----------------------------------------------------------------------------

 POTCAR:    PAW_PBE C 08Apr2002                   
   SHA256 =  253f7b50bb8d59471dbedb8285d89021f4a42ed1a2c5d38a03a736e69125dd95 C/POTCAR              
   COPYR  = (c) Copyright 08Apr2002 Georg Kresse                                                    
   COPYR  = This file is part of the software VASP. Any use, copying, and all other rights are regul
   COPYR  = If you do not have a valid VASP license, you may not use, copy or distribute this file. 
   VRHFIN =C: s2p2                                                                                  
   LEXCH  = PE                                                                                      
   EATOM  =   147.1560 eV,   10.8157 Ry                                                             
                                                                                                    
   TITEL  = PAW_PBE C 08Apr2002                                                                     
   LULTRA =        F    use ultrasoft PP ?                                                          
   IUNSCR =        1    unscreen: 0-lin 1-nonlin 2-no                                               
   RPACOR =    1.200    partial core radius                                                         
   POMASS =   12.011; ZVAL   =    4.000    mass and valenz                                          
   RCORE  =    1.500    outmost cutoff radius                                                       
   RWIGS  =    1.630; RWIGS  =    0.863    wigner-seitz radius (au A)                               
   ENMAX  =  400.000; ENMIN  =  300.000 eV                                                          
   ICORE  =        2    local potential                                                             
   LCOR   =        T    correct aug charges                                                         
   LPAW   =        T    paw PP                                                                      
   EAUG   =  644.873                                                                                
   DEXC   =    0.000                                                                                
   RMAX   =    1.529    core radius for proj-oper                                                   
   RAUG   =    1.300    factor for augmentation sphere                                              
   RDEP   =    1.501    radius for radial grids                                                     
   RDEPT  =    1.300    core radius for aug-charge                                                  
                                                                                                    
   Atomic configuration                                                                             
    4 entries                                                                                       
     n  l   j            E        occ.                                                              
     1  0  0.50      -273.3789   2.0000                                                             
     2  0  0.50       -13.7508   2.0000                                                             
     2  1  0.50        -5.2854   2.0000                                                             
     3  2  1.50        -5.4423   0.0000                                                             
   Description                                                                                      
     l       E           TYP  RCUT    TYP  RCUT                                                     
     0    -13.7508458     23  1.200                                                                 
     0     -8.2022199     23  1.200                                                                 
     1     -5.2854383     23  1.500                                                                 
     1     34.0145650     23  1.500                                                                 
     2     -5.4423304      7  1.500                                                                 
  local pseudopotential read in
  partial core-charges read in
  partial kinetic energy density read in
  atomic valenz-charges read in
  non local Contribution for L=           0  read in
    real space projection operators read in
  non local Contribution for L=           0  read in
    real space projection operators read in
  non local Contribution for L=           1  read in
    real space projection operators read in
  non local Contribution for L=           1  read in
    real space projection operators read in
    PAW grid and wavefunctions read in
 
   number of l-projection  operators is LMAX  =           4
   number of lm-projection operators is LMMAX =           8
 
  PAW_PBE C 08Apr2002                   :
 energy of atom  1       EATOM= -147.1560
 kinetic energy error for atom=    0.0057 (will be added to EATOM!!)
 
 
 POSCAR:  C
  positions in direct lattice
  No initial velocities read in
 exchange correlation table for  LEXCH =        8
   RHO(1)=    0.500       N(1)  =     2000
   RHO(2)=  100.500       N(2)  =     4000
 


--------------------------------------------------------------------------------------------------------


 ion  position               nearest neighbor table
   1  0.333  0.333  0.500-   2 1.21   2 1.56   2 1.70
   2  0.667  0.667  0.500-   1 1.21   1 1.56   1 1.70
 
  LATTYP: Found a simple monoclinic cell.
 ALAT       =     2.2164980335
 B/A-ratio  =     9.0232428351
 C/A-ratio  =     1.1306130528
 COS(beta)  =    -0.1782581556
  
  Lattice vectors:
  
 A1 = (   0.7769329595,  -2.0758705906,   0.0000000000)
 A2 = (   0.0000000000,   0.0000000000,  20.0000000000)
 A3 = (  -2.4660000000,  -0.4459686770,   0.0000000000)


Analysis of symmetry for initial positions (statically):
=====================================================================
 Subroutine PRICEL returns:
 Original cell was already a primitive cell.
 

 Routine SETGRP: Setting up the symmetry group for a 
 simple monoclinic supercell.


 Subroutine GETGRP returns: Found  4 space group operations
 (whereof  4 operations were pure point group operations)
 out of a pool of  4 trial point group operations.


The static configuration has the point symmetry C_2h.


Analysis of symmetry for dynamics (positions and initial velocities):
=====================================================================
 Subroutine PRICEL returns:
 Original cell was already a primitive cell.
 

 Routine SETGRP: Setting up the symmetry group for a 
 simple monoclinic supercell.


 Subroutine GETGRP returns: Found  4 space group operations
 (whereof  4 operations were pure point group operations)
 out of a pool of  4 trial point group operations.


The dynamic configuration has the point symmetry C_2h.


Analysis of constrained symmetry for selective dynamics:
=====================================================================
 Subroutine PRICEL returns:
 Original cell was already a primitive cell.
 

 Routine SETGRP: Setting up the symmetry group for a 
 simple monoclinic supercell.


 Subroutine GETGRP returns: Found  4 space group operations
 (whereof  4 operations were pure point group operations)
 out of a pool of  4 trial point group operations.


The constrained configuration has the point symmetry C_2h.


 Subroutine INISYM returns: Found  4 space group operations
 (whereof  4 operations are pure point group operations),
 and found     1 'primitive' translations


----------------------------------------------------------------------------------------

                                     Primitive cell                                     

  volume of cell :     109.3117

  direct lattice vectors                    reciprocal lattice vectors
     2.466000000  0.445968677  0.000000000     0.461403387 -0.309036846  0.000000000
     1.689067040  2.521839268  0.000000000    -0.081595786  0.451186865  0.000000000
     0.000000000  0.000000000 20.000000000     0.000000000  0.000000000  0.050000000

  length of vectors
     2.506001608  3.035229935 20.000000000     0.555334906  0.458505681  0.050000000

  position of ions in fractional coordinates (direct lattice)
     0.333333333  0.333333333  0.500000000
     0.666666667  0.666666667  0.500000000

  ion indices of the primitive-cell ions
   primitive index   ion index
                 1           1
                 2           2

----------------------------------------------------------------------------------------

 
 
 KPOINTS: KPOINTS created by Atomic Simulation Env

Automatic generation of k-mesh.
 Grid dimensions read from file:
 generate k-points for:    4    4    1

 Generating k-lattice:

  Cartesian coordinates                     Fractional coordinates (reciprocal lattice)
     0.115350847 -0.077259212  0.000000000     0.250000000  0.000000000  0.000000000
    -0.020398947  0.112796716  0.000000000     0.000000000  0.250000000  0.000000000
     0.000000000  0.000000000  0.050000000     0.000000000  0.000000000  1.000000000

  Length of vectors
     0.138833727  0.114626420  0.050000000

  Shift w.r.t. Gamma in fractional coordinates (k-lattice)
     0.500000000  0.500000000  0.000000000

 
 Subroutine IBZKPT returns following result:
 ===========================================
 
 Found      8 irreducible k-points:
 
 Following reciprocal coordinates:
            Coordinates               Weight
  0.125000  0.125000  0.000000      2.000000
  0.375000  0.125000  0.000000      2.000000
 -0.375000  0.125000  0.000000      2.000000
 -0.125000  0.125000  0.000000      2.000000
  0.125000  0.375000  0.000000      2.000000
  0.375000  0.375000  0.000000      2.000000
 -0.375000  0.375000  0.000000      2.000000
 -0.125000  0.375000  0.000000      2.000000
 
 Following cartesian coordinates:
            Coordinates               Weight
  0.047476  0.017769  0.000000      2.000000
  0.162827 -0.059490  0.000000      2.000000
 -0.183226  0.172287  0.000000      2.000000
 -0.067875  0.095028  0.000000      2.000000
  0.027077  0.130565  0.000000      2.000000
  0.142428  0.053306  0.000000      2.000000
 -0.203625  0.285084  0.000000      2.000000
 -0.088274  0.207825  0.000000      2.000000
 


--------------------------------------------------------------------------------------------------------




 Dimension of arrays:
   k-points           NKPTS =      8   k-points in BZ     NKDIM =      8   number of bands    NBANDS=      8
   number of dos      NEDOS =    301   number of ions     NIONS =      2
   non local maximal  LDIM  =      4   non local SUM 2l+1 LMDIM =      8
   total plane-waves  NPLWV =  76800
   max r-space proj   IRMAX =      1   max aug-charges    IRDMAX=   8490
   dimension x,y,z NGX =    20 NGY =   24 NGZ =  160
   dimension x,y,z NGXF=    40 NGYF=   48 NGZF=  320
   support grid    NGXF=    40 NGYF=   48 NGZF=  320
   ions per type =               2
   NGX,Y,Z   is equivalent  to a cutoff of  13.27, 13.15, 13.30 a.u.
   NGXF,Y,Z  is equivalent  to a cutoff of  26.54, 26.29, 26.60 a.u.

 SYSTEM =  unknown system                          
 POSCAR =   C                                      

 Startparameter for this run:
   NWRITE =      2    write-flag & timer
   PREC   = accura    normal or accurate (medium, high low for compatibility)
   ISTART =      0    job   : 0-new  1-cont  2-samecut
   ICHARG =      2    charge: 1-file 2-atom 10-const
   ISPIN  =      1    spin polarized calculation?
   LNONCOLLINEAR =      F non collinear calculations
   LSORBIT =      F    spin-orbit coupling
   INIWAV =      1    electr: 0-lowe 1-rand  2-diag
   LASPH  =      F    aspherical Exc in radial PAW
 Electronic Relaxation 1
   ENCUT  =  600.0 eV  44.10 Ry    6.64 a.u.   5.01  6.06 39.94*2*pi/ulx,y,z
   ENINI  =  600.0     initial cutoff
   ENAUG  =  644.9 eV  augmentation charge cutoff
   NELM   =     60;   NELMIN=  2; NELMDL= -5     # of ELM steps 
   EDIFF  = 0.1E-05   stopping-criterion for ELM
   LREAL  =      F    real-space projection
   NLSPLINE    = F    spline interpolate recip. space projectors
   LCOMPAT=      F    compatible to vasp.4.4
   GGA_COMPAT  = T    GGA compatible to vasp.4.4-vasp.4.6
   LMAXPAW     = -100 max onsite density
   LMAXMIX     =    2 max onsite mixed and CHGCAR
   VOSKOWN=      0    Vosko Wilk Nusair interpolation
   ROPT   =    0.00000
 Ionic relaxation
   EDIFFG = 0.1E-04   stopping-criterion for IOM
   NSW    =    300    number of steps for IOM
   NBLOCK =      1;   KBLOCK =    300    inner block; outer block 
   IBRION =      2    ionic relax: 0-MD 1-quasi-New 2-CG
   NFREE  =      1    steps in history (QN), initial steepest desc. (CG)
   ISIF   =      2    stress and relaxation
   IWAVPR =     11    prediction:  0-non 1-charg 2-wave 3-comb
   ISYM   =      2    0-nonsym 1-usesym 2-fastsym
   LCORR  =      T    Harris-Foulkes like correction to forces

   POTIM  = 0.5000    time-step for ionic-motion
   TEIN   =    0.0    initial temperature
   TEBEG  =    0.0;   TEEND  =   0.0 temperature during run
   SMASS  =  -3.00    Nose mass-parameter (am)
   estimated Nose-frequenzy (Omega)   =  0.10E-29 period in steps = 0.13E+47 mass=  -0.144E-27a.u.
   SCALEE = 1.0000    scale energy and forces
   NPACO  =    256;   APACO  = 16.0  distance and # of slots for P.C.
   PSTRESS=    0.0 pullay stress

  Mass of Ions in am
   POMASS =  12.01
  Ionic Valenz
   ZVAL   =   4.00
  Atomic Wigner-Seitz radii
   RWIGS  =  -1.00
  virtual crystal weights 
   VCA    =   1.00
   NELECT =       8.0000    total number of electrons
   NUPDOWN=      -1.0000    fix difference up-down

 DOS related values:
   EMIN   =  10.00;   EMAX   =-10.00  energy-range for DOS
   EFERMI =   0.00
   ISMEAR =     0;   SIGMA  =   0.10  broadening in eV -4-tet -1-fermi 0-gaus

 Electronic relaxation 2 (details)
   IALGO  =     38    algorithm
   LDIAG  =      T    sub-space diagonalisation (order eigenvalues)
   LSUBROT=      F    optimize rotation matrix (better conditioning)
   TURBO    =      0    0=normal 1=particle mesh
   IRESTART =      0    0=no restart 2=restart with 2 vectors
   NREBOOT  =      0    no. of reboots
   NMIN     =      0    reboot dimension
   EREF     =   0.00    reference energy to select bands
   IMIX   =      4    mixing-type and parameters
     AMIX     =   0.40;   BMIX     =  1.00
     AMIX_MAG =   1.60;   BMIX_MAG =  1.00
     AMIN     =   0.10
     WC   =   100.;   INIMIX=   1;  MIXPRE=   1;  MAXMIX= -45

 Intra band minimization:
   WEIMIN = 0.0010     energy-eigenvalue tresh-hold
   EBREAK =  0.31E-07  absolut break condition
   DEPER  =   0.30     relativ break condition  

   TIME   =   0.40     timestep for ELM

  volume/ion in A,a.u.               =      54.66       368.84
  Fermi-wavevector in a.u.,A,eV,Ry     =   0.684777  1.294041  6.380041  0.468920
  Thomas-Fermi vector in A             =   1.764528
 
 Write flags
   LWAVE        =      F    write WAVECAR
   LDOWNSAMPLE  =      F    k-point downsampling of WAVECAR
   LCHARG       =      F    write CHGCAR
   LVTOT        =      F    write LOCPOT, total local potential
   LVHAR        =      F    write LOCPOT, Hartree potential only
   LELF         =      F    write electronic localiz. function (ELF)
   LORBIT       =      0    0 simple, 1 ext, 2 COOP (PROOUT), +10 PAW based schemes


 Dipole corrections
   LMONO  =      F    monopole corrections only (constant potential shift)
   LDIPOL =      F    correct potential (dipole corrections)
   IDIPOL =      0    1-x, 2-y, 3-z, 4-all directions 
   EPSILON=  1.0000000 bulk dielectric constant

 Exchange correlation treatment:
   GGA     =    --    GGA type
   LEXCH   =     8    internal setting for exchange type
   VOSKOWN=      0    Vosko Wilk Nusair interpolation
   LHFCALC =     F    Hartree Fock is set to
   LHFONE  =     F    Hartree Fock one center treatment
   AEXX    =    0.0000 exact exchange contribution

 Linear response parameters
   LEPSILON=     F    determine dielectric tensor
   LRPA    =     F    only Hartree local field effects (RPA)
   LNABLA  =     F    use nabla operator in PAW spheres
   LVEL    =     F    velocity operator in full k-point grid
   LINTERFAST=   F  fast interpolation
   KINTER  =     0    interpolate to denser k-point grid
   CSHIFT  =0.1000    complex shift for real part using Kramers Kronig
   OMEGAMAX=  -1.0    maximum frequency
   DEG_THRESHOLD= 0.2000000E-02 threshold for treating states as degnerate
   RTIME   =   -0.100 relaxation time in fs
  (WPLASMAI=    0.000 imaginary part of plasma frequency in eV, 0.658/RTIME)
   DFIELD  = 0.0000000 0.0000000 0.0000000 field for delta impulse in time
 
 Orbital magnetization related:
   ORBITALMAG=     F  switch on orbital magnetization
   LCHIMAG   =     F  perturbation theory with respect to B field
   DQ        =  0.001000  dq finite difference perturbation B field
   LLRAUG    =     F  two centre corrections for induced B field



--------------------------------------------------------------------------------------------------------


 conjugate gradient relaxation of ions
   using selective dynamics as specified on POSCAR
 charge density and potential will be updated during run
 non-spin polarized calculation
 Variant of blocked Davidson
 Davidson routine will perform the subspace rotation
 perform sub-space diagonalisation
    after iterative eigenvector-optimisation
 modified Broyden-mixing scheme, WC =      100.0
 initial mixing is a Kerker type mixing with AMIX =  0.4000 and BMIX =      1.0000
 Hartree-type preconditioning will be used
 using additional bands            4
 reciprocal scheme for non local part
 use partial core corrections
 calculate Harris-corrections to forces 
   (improved forces if not selfconsistent)
 use gradient corrections 
 use of overlap-Matrix (Vanderbilt PP)
 Gauss-broadening in eV      SIGMA  =   0.10


--------------------------------------------------------------------------------------------------------


  energy-cutoff  :      600.00
  volume of cell :      109.31
      direct lattice vectors                 reciprocal lattice vectors
     2.466000000  0.445968677  0.000000000     0.461403387 -0.309036846  0.000000000
     1.689067040  2.521839268  0.000000000    -0.081595786  0.451186865  0.000000000
     0.000000000  0.000000000 20.000000000     0.000000000  0.000000000  0.050000000

  length of vectors
     2.506001608  3.035229935 20.000000000     0.555334906  0.458505681  0.050000000


 
 k-points in units of 2pi/SCALE and weight: KPOINTS created by Atomic Simulation Env
   0.04747595  0.01776875  0.00000000       0.125
   0.16282680 -0.05949046  0.00000000       0.125
  -0.18322574  0.17228718  0.00000000       0.125
  -0.06787490  0.09502796  0.00000000       0.125
   0.02707700  0.13056547  0.00000000       0.125
   0.14242785  0.05330626  0.00000000       0.125
  -0.20362469  0.28508389  0.00000000       0.125
  -0.08827384  0.20782468  0.00000000       0.125
 
 k-points in reciprocal lattice and weights: KPOINTS created by Atomic Simulation Env
   0.12500000  0.12500000  0.00000000       0.125
   0.37500000  0.12500000  0.00000000       0.125
  -0.37500000  0.12500000  0.00000000       0.125
  -0.12500000  0.12500000  0.00000000       0.125
   0.12500000  0.37500000  0.00000000       0.125
   0.37500000  0.37500000  0.00000000       0.125
  -0.37500000  0.37500000  0.00000000       0.125
  -0.12500000  0.37500000  0.00000000       0.125
 
 position of ions in fractional coordinates (direct lattice) 
   0.33333333  0.33333333  0.50000000
   0.66666667  0.66666667  0.50000000
 
 position of ions in cartesian coordinates  (Angst):
   1.38502235  0.98926931 10.00000000
   2.77004469  1.97853863 10.00000000
 


--------------------------------------------------------------------------------------------------------


 k-point   1 :   0.1250 0.1250 0.0000  plane waves:    3654
 k-point   2 :   0.3750 0.1250 0.0000  plane waves:    3664
 k-point   3 :  -0.3750 0.1250 0.0000  plane waves:    3626
 k-point   4 :  -0.1250 0.1250 0.0000  plane waves:    3622
 k-point   5 :   0.1250 0.3750 0.0000  plane waves:    3659
 k-point   6 :   0.3750 0.3750 0.0000  plane waves:    3687
 k-point   7 :  -0.3750 0.3750 0.0000  plane waves:    3673
 k-point   8 :  -0.1250 0.3750 0.0000  plane waves:    3624

 maximum and minimum number of plane-waves per node :      3687     3622

 maximum number of plane-waves:      3687
 maximum index in each direction: 
   IXMAX=    5   IYMAX=    5   IZMAX=   39
   IXMIN=   -5   IYMIN=   -6   IZMIN=  -39


 serial   3D FFT for wavefunctions

 total amount of memory used by VASP MPI-rank0    62458. kBytes
=======================================================================

   base      :      30000. kBytes
   nonl-proj :       2006. kBytes
   fftplans  :      10664. kBytes
   grid      :      17886. kBytes
   one-center:          6. kBytes
   wavefun   :       1896. kBytes
 
     INWAV:  cpu time    0.0000: real time    0.0000
 Broyden mixing: mesh for mixing (old mesh)
   NGX =  9   NGY = 13   NGZ = 79
  (NGX  = 40   NGY  = 48   NGZ  =320)
  gives a total of   9243 points

 initial charge density was supplied:
 charge density of overlapping atoms calculated
 number of electron       8.0000000 magnetization 
 keeping initial charge density in first step


--------------------------------------------------------------------------------------------------------


 Maximum index for augmentation-charges         4012 (set IRDMAX)


--------------------------------------------------------------------------------------------------------


 First call to EWALD:  gamma=   0.371
 Maximum number of real-space cells 6x 5x 1
 Maximum number of reciprocal cells 2x 2x10

    FEWALD:  cpu time    0.0009: real time    0.0009


--------------------------------------- Iteration      1(   1)  ---------------------------------------


    POTLOK:  cpu time    0.0887: real time    0.0887
    SETDIJ:  cpu time    0.0007: real time    0.0007
     EDDAV:  cpu time    0.1390: real time    0.1392
       DOS:  cpu time    0.0001: real time    0.0001
    --------------------------------------------
      LOOP:  cpu time    0.2285: real time    0.2287

 eigenvalue-minimisations  :   128
 total energy-change (2. order) : 0.7013419E+02  (-0.3416369E+03)
 number of electron       8.0000000 magnetization 
 augmentation part        8.0000000 magnetization 

 Free energy of the ion-electron system (eV)
  ---------------------------------------------------
  alpha Z        PSCENC =         3.00596263
  Ewald energy   TEWEN  =      1243.32301128
  -Hartree energ DENC   =     -1454.78476045
  -exchange      EXHF   =         0.00000000
  -V(xc)+E(xc)   XCENC  =        26.16306516
  PAW double counting   =       217.04409276     -218.18290438
  entropy T*S    EENTRO =        -0.00878610
  eigenvalues    EBANDS =       -40.72606773
  atomic energy  EATOM  =       294.30057552
  Solvation  Ediel_sol  =         0.00000000
  ---------------------------------------------------
  free energy    TOTEN  =        70.13418868 eV

  energy without entropy =       70.14297479  energy(sigma->0) =       70.13858174


--------------------------------------------------------------------------------------------------------




--------------------------------------- Iteration      1(   2)  ---------------------------------------


     EDDAV:  cpu time    0.2073: real time    0.2074
       DOS:  cpu time    0.0001: real time    0.0001
    --------------------------------------------
      LOOP:  cpu time    0.2073: real time    0.2075

 eigenvalue-minimisations  :   192
 total energy-change (2. order) :-0.8194821E+02  (-0.7007301E+02)
 number of electron       8.0000000 magnetization 
 augmentation part        8.0000000 magnetization 

 Free energy of the ion-electron system (eV)
  ---------------------------------------------------
  alpha Z        PSCENC =         3.00596263
  Ewald energy   TEWEN  =      1243.32301128
  -Hartree energ DENC   =     -1454.78476045
  -exchange      EXHF   =         0.00000000
  -V(xc)+E(xc)   XCENC  =        26.16306516
  PAW double counting   =       217.04409276     -218.18290438
  entropy T*S    EENTRO =        -0.00000000
  eigenvalues    EBANDS =      -122.68305986
  atomic energy  EATOM  =       294.30057552
  Solvation  Ediel_sol  =         0.00000000
  ---------------------------------------------------
  free energy    TOTEN  =       -11.81401734 eV

  energy without entropy =      -11.81401734  energy(sigma->0) =      -11.81401734


--------------------------------------------------------------------------------------------------------




--------------------------------------- Iteration      1(   3)  ---------------------------------------


     EDDAV:  cpu time    0.1998: real time    0.1999
       DOS:  cpu time    0.0001: real time    0.0001
    --------------------------------------------
      LOOP:  cpu time    0.1999: real time    0.2000

 eigenvalue-minimisations  :   216
 total energy-change (2. order) :-0.5002792E+01  (-0.5002792E+01)
 number of electron       8.0000000 magnetization 
 augmentation part        8.0000000 magnetization 

 Free energy of the ion-electron system (eV)
  ---------------------------------------------------
  alpha Z        PSCENC =         3.00596263
  Ewald energy   TEWEN  =      1243.32301128
  -Hartree energ DENC   =     -1454.78476045
  -exchange      EXHF   =         0.00000000
  -V(xc)+E(xc)   XCENC  =        26.16306516
  PAW double counting   =       217.04409276     -218.18290438
  entropy T*S    EENTRO =        -0.00000000
  eigenvalues    EBANDS =      -127.68585165
  atomic energy  EATOM  =       294.30057552
  Solvation  Ediel_sol  =         0.00000000
  ---------------------------------------------------
  free energy    TOTEN  =       -16.81680914 eV

  energy without entropy =      -16.81680914  energy(sigma->0) =      -16.81680914


--------------------------------------------------------------------------------------------------------




--------------------------------------- Iteration      1(   4)  ---------------------------------------


     EDDAV:  cpu time    0.2080: real time    0.2080
       DOS:  cpu time    0.0001: real time    0.0001
    --------------------------------------------
      LOOP:  cpu time    0.2081: real time    0.2081

 eigenvalue-minimisations  :   184
 total energy-change (2. order) :-0.2605441E-01  (-0.2605441E-01)
 number of electron       8.0000000 magnetization 
 augmentation part        8.0000000 magnetization 

 Free energy of the ion-electron system (eV)
  ---------------------------------------------------
  alpha Z        PSCENC =         3.00596263
  Ewald energy   TEWEN  =      1243.32301128
  -Hartree energ DENC   =     -1454.78476045
  -exchange      EXHF   =         0.00000000
  -V(xc)+E(xc)   XCENC  =        26.16306516
  PAW double counting   =       217.04409276     -218.18290438
  entropy T*S    EENTRO =        -0.00000000
  eigenvalues    EBANDS =      -127.71190606
  atomic energy  EATOM  =       294.30057552
  Solvation  Ediel_sol  =         0.00000000
  ---------------------------------------------------
  free energy    TOTEN  =       -16.84286355 eV

  energy without entropy =      -16.84286355  energy(sigma->0) =      -16.84286355


--------------------------------------------------------------------------------------------------------




--------------------------------------- Iteration      1(   5)  ---------------------------------------


     EDDAV:  cpu time    0.2517: real time    0.2517
       DOS:  cpu time    0.0001: real time    0.0001
    CHARGE:  cpu time    0.0227: real time    0.0227
    MIXING:  cpu time    0.0038: real time    0.0038
    --------------------------------------------
      LOOP:  cpu time    0.2783: real time    0.2783

 eigenvalue-minimisations  :   224
 total energy-change (2. order) :-0.2828596E-04  (-0.2828597E-04)
 number of electron       8.0000001 magnetization 
 augmentation part        0.2159085 magnetization 

 Broyden mixing:
  rms(total) = 0.76082E+00    rms(broyden)= 0.76078E+00
  rms(prec ) = 0.81529E+00
  weight for this iteration     100.00

 Free energy of the ion-electron system (eV)
  ---------------------------------------------------
  alpha Z        PSCENC =         3.00596263
  Ewald energy   TEWEN  =      1243.32301128
  -Hartree energ DENC   =     -1454.78476045
  -exchange      EXHF   =         0.00000000
  -V(xc)+E(xc)   XCENC  =        26.16306516
  PAW double counting   =       217.04409276     -218.18290438
  entropy T*S    EENTRO =        -0.00000000
  eigenvalues    EBANDS =      -127.71193435
  atomic energy  EATOM  =       294.30057552
  Solvation  Ediel_sol  =         0.00000000
  ---------------------------------------------------
  free energy    TOTEN  =       -16.84289183 eV

  energy without entropy =      -16.84289183  energy(sigma->0) =      -16.84289183


--------------------------------------------------------------------------------------------------------




--------------------------------------- Iteration      1(   6)  ---------------------------------------


    POTLOK:  cpu time    0.1086: real time    0.1086
    SETDIJ:  cpu time    0.0010: real time    0.0010
     EDDAV:  cpu time    0.2429: real time    0.2429
       DOS:  cpu time    0.0001: real time    0.0001
    CHARGE:  cpu time    0.0227: real time    0.0227
    MIXING:  cpu time    0.0031: real time    0.0031
    --------------------------------------------
      LOOP:  cpu time    0.3784: real time    0.3784

 eigenvalue-minimisations  :   200
 total energy-change (2. order) : 0.1490597E+01  (-0.1771813E+00)
 number of electron       8.0000001 magnetization 
 augmentation part        0.2031418 magnetization 

 Broyden mixing:
  rms(total) = 0.41230E+00    rms(broyden)= 0.41230E+00
  rms(prec ) = 0.43753E+00
  weight for this iteration     100.00

 eigenvalues of (default mixing * dielectric matrix)
  average eigenvalue GAMMA=   2.0198
  2.0198

 Free energy of the ion-electron system (eV)
  ---------------------------------------------------
  alpha Z        PSCENC =         3.00596263
  Ewald energy   TEWEN  =      1243.32301128
  -Hartree energ DENC   =     -1467.03316218
  -exchange      EXHF   =         0.00000000
  -V(xc)+E(xc)   XCENC  =        26.70799445
  PAW double counting   =       397.33108807     -398.64534761
  entropy T*S    EENTRO =        -0.00000000
  eigenvalues    EBANDS =      -114.34241685
  atomic energy  EATOM  =       294.30057552
  Solvation  Ediel_sol  =         0.00000000
  ---------------------------------------------------
  free energy    TOTEN  =       -15.35229470 eV

  energy without entropy =      -15.35229470  energy(sigma->0) =      -15.35229470


--------------------------------------------------------------------------------------------------------




--------------------------------------- Iteration      1(   7)  ---------------------------------------


    POTLOK:  cpu time    0.1112: real time    0.1112
    SETDIJ:  cpu time    0.0012: real time    0.0012
     EDDAV:  cpu time    0.2616: real time    0.2618
       DOS:  cpu time    0.0001: real time    0.0001
    CHARGE:  cpu time    0.0233: real time    0.0233
    MIXING:  cpu time    0.0030: real time    0.0030
    --------------------------------------------
      LOOP:  cpu time    0.4005: real time    0.4007

 eigenvalue-minimisations  :   200
 total energy-change (2. order) : 0.4562615E+00  (-0.1773914E+00)
 number of electron       8.0000000 magnetization 
 augmentation part        0.1901343 magnetization 

 Broyden mixing:
  rms(total) = 0.11599E+00    rms(broyden)= 0.11597E+00
  rms(prec ) = 0.11962E+00
  weight for this iteration     100.00

 eigenvalues of (default mixing * dielectric matrix)
  average eigenvalue GAMMA=   2.3373
  2.0065  2.6680

 Free energy of the ion-electron system (eV)
  ---------------------------------------------------
  alpha Z        PSCENC =         3.00596263
  Ewald energy   TEWEN  =      1243.32301128
  -Hartree energ DENC   =     -1481.55604685
  -exchange      EXHF   =         0.00000000
  -V(xc)+E(xc)   XCENC  =        27.34619498
  PAW double counting   =       711.47858049     -712.93335841
  entropy T*S    EENTRO =        -0.00000000
  eigenvalues    EBANDS =       -99.86095284
  atomic energy  EATOM  =       294.30057552
  Solvation  Ediel_sol  =         0.00000000
  ---------------------------------------------------
  free energy    TOTEN  =       -14.89603321 eV

  energy without entropy =      -14.89603321  energy(sigma->0) =      -14.89603321


--------------------------------------------------------------------------------------------------------




--------------------------------------- Iteration      1(   8)  ---------------------------------------


    POTLOK:  cpu time    0.1092: real time    0.1092
    SETDIJ:  cpu time    0.0010: real time    0.0010
     EDDAV:  cpu time    0.2972: real time    0.2973
       DOS:  cpu time    0.0001: real time    0.0001
    CHARGE:  cpu time    0.0306: real time    0.0306
    MIXING:  cpu time    0.0030: real time    0.0030
    --------------------------------------------
      LOOP:  cpu time    0.4412: real time    0.4413

 eigenvalue-minimisations  :   224
 total energy-change (2. order) : 0.9685857E-02  (-0.4505123E-02)
 number of electron       8.0000000 magnetization 
 augmentation part        0.1904811 magnetization 

 Broyden mixing:
  rms(total) = 0.18353E-01    rms(broyden)= 0.18350E-01
  rms(prec ) = 0.23747E-01
  weight for this iteration     100.00

 eigenvalues of (default mixing * dielectric matrix)
  average eigenvalue GAMMA=   1.8490
  1.2864  2.5006  1.7600

 Free energy of the ion-electron system (eV)
  ---------------------------------------------------
  alpha Z        PSCENC =         3.00596263
  Ewald energy   TEWEN  =      1243.32301128
  -Hartree energ DENC   =     -1484.21521336
  -exchange      EXHF   =         0.00000000
  -V(xc)+E(xc)   XCENC  =        27.36858153
  PAW double counting   =       848.39748922     -849.79936776
  entropy T*S    EENTRO =        -0.00000000
  eigenvalues    EBANDS =       -97.26738640
  atomic energy  EATOM  =       294.30057552
  Solvation  Ediel_sol  =         0.00000000
  ---------------------------------------------------
  free energy    TOTEN  =       -14.88634735 eV

  energy without entropy =      -14.88634735  energy(sigma->0) =      -14.88634735


--------------------------------------------------------------------------------------------------------




--------------------------------------- Iteration      1(   9)  ---------------------------------------


    POTLOK:  cpu time    0.1078: real time    0.1079
    SETDIJ:  cpu time    0.0008: real time    0.0008
     EDDAV:  cpu time    0.1911: real time    0.1911
       DOS:  cpu time    0.0001: real time    0.0001
    CHARGE:  cpu time    0.0171: real time    0.0171
    MIXING:  cpu time    0.0022: real time    0.0022
    --------------------------------------------
      LOOP:  cpu time    0.3192: real time    0.3193

 eigenvalue-minimisations  :   184
 total energy-change (2. order) : 0.1161094E-02  (-0.3565905E-03)
 number of electron       8.0000000 magnetization 
 augmentation part        0.1900578 magnetization 

 Broyden mixing:
  rms(total) = 0.88959E-02    rms(broyden)= 0.88949E-02
  rms(prec ) = 0.15250E-01
  weight for this iteration     100.00

 eigenvalues of (default mixing * dielectric matrix)
  average eigenvalue GAMMA=   2.0577
  2.6745  2.6745  1.1283  1.7533

 Free energy of the ion-electron system (eV)
  ---------------------------------------------------
  alpha Z        PSCENC =         3.00596263
  Ewald energy   TEWEN  =      1243.32301128
  -Hartree energ DENC   =     -1485.11310543
  -exchange      EXHF   =         0.00000000
  -V(xc)+E(xc)   XCENC  =        27.39259512
  PAW double counting   =       839.49528453     -840.90536577
  entropy T*S    EENTRO =        -0.00000000
  eigenvalues    EBANDS =       -96.38414413
  atomic energy  EATOM  =       294.30057552
  Solvation  Ediel_sol  =         0.00000000
  ---------------------------------------------------
  free energy    TOTEN  =       -14.88518626 eV

  energy without entropy =      -14.88518626  energy(sigma->0) =      -14.88518626


--------------------------------------------------------------------------------------------------------




--------------------------------------- Iteration      1(  10)  ---------------------------------------


    POTLOK:  cpu time    0.0952: real time    0.0953
    SETDIJ:  cpu time    0.0007: real time    0.0007
     EDDAV:  cpu time    0.2074: real time    0.2075
       DOS:  cpu time    0.0001: real time    0.0001
    CHARGE:  cpu time    0.0165: real time    0.0165
    MIXING:  cpu time    0.0022: real time    0.0022
    --------------------------------------------
      LOOP:  cpu time    0.3221: real time    0.3224

 eigenvalue-minimisations  :   208
 total energy-change (2. order) : 0.1265386E-02  (-0.1047591E-03)
 number of electron       8.0000000 magnetization 
 augmentation part        0.1899772 magnetization 

 Broyden mixing:
  rms(total) = 0.49626E-02    rms(broyden)= 0.49623E-02
  rms(prec ) = 0.84381E-02
  weight for this iteration     100.00

 eigenvalues of (default mixing * dielectric matrix)
  average eigenvalue GAMMA=   1.9341
  3.1320  2.4387  1.7733  1.0448  1.2817

 Free energy of the ion-electron system (eV)
  ---------------------------------------------------
  alpha Z        PSCENC =         3.00596263
  Ewald energy   TEWEN  =      1243.32301128
  -Hartree energ DENC   =     -1487.09410299
  -exchange      EXHF   =         0.00000000
  -V(xc)+E(xc)   XCENC  =        27.40903383
  PAW double counting   =       827.26918853     -828.67426851
  entropy T*S    EENTRO =        -0.00000000
  eigenvalues    EBANDS =       -94.42332116
  atomic energy  EATOM  =       294.30057552
  Solvation  Ediel_sol  =         0.00000000
  ---------------------------------------------------
  free energy    TOTEN  =       -14.88392087 eV

  energy without entropy =      -14.88392087  energy(sigma->0) =      -14.88392087


--------------------------------------------------------------------------------------------------------




--------------------------------------- Iteration      1(  11)  ---------------------------------------


    POTLOK:  cpu time    0.0871: real time    0.0871
    SETDIJ:  cpu time    0.0007: real time    0.0007
     EDDAV:  cpu time    0.2030: real time    0.2032
       DOS:  cpu time    0.0001: real time    0.0001
    CHARGE:  cpu time    0.0163: real time    0.0163
    MIXING:  cpu time    0.0023: real time    0.0023
    --------------------------------------------
      LOOP:  cpu time    0.3095: real time    0.3097

 eigenvalue-minimisations  :   184
 total energy-change (2. order) : 0.1396258E-03  (-0.3549926E-04)
 number of electron       8.0000000 magnetization 
 augmentation part        0.1898386 magnetization 

 Broyden mixing:
  rms(total) = 0.35170E-02    rms(broyden)= 0.35168E-02
  rms(prec ) = 0.58303E-02
  weight for this iteration     100.00

 eigenvalues of (default mixing * dielectric matrix)
  average eigenvalue GAMMA=   2.3905
  4.8651  2.9501  2.6424  1.8269  1.0749  0.9839

 Free energy of the ion-electron system (eV)
  ---------------------------------------------------
  alpha Z        PSCENC =         3.00596263
  Ewald energy   TEWEN  =      1243.32301128
  -Hartree energ DENC   =     -1488.05306166
  -exchange      EXHF   =         0.00000000
  -V(xc)+E(xc)   XCENC  =        27.42110462
  PAW double counting   =       833.48981988     -834.89419373
  entropy T*S    EENTRO =        -0.00000000
  eigenvalues    EBANDS =       -93.47699978
  atomic energy  EATOM  =       294.30057552
  Solvation  Ediel_sol  =         0.00000000
  ---------------------------------------------------
  free energy    TOTEN  =       -14.88378124 eV

  energy without entropy =      -14.88378124  energy(sigma->0) =      -14.88378124


--------------------------------------------------------------------------------------------------------




--------------------------------------- Iteration      1(  12)  ---------------------------------------


    POTLOK:  cpu time    0.0866: real time    0.0866
    SETDIJ:  cpu time    0.0007: real time    0.0007
     EDDAV:  cpu time    0.1607: real time    0.1607
       DOS:  cpu time    0.0001: real time    0.0001
    CHARGE:  cpu time    0.0167: real time    0.0167
    MIXING:  cpu time    0.0026: real time    0.0026
    --------------------------------------------
      LOOP:  cpu time    0.2674: real time    0.2674

 eigenvalue-minimisations  :   160
 total energy-change (2. order) :-0.6209410E-03  (-0.4406494E-04)
 number of electron       8.0000000 magnetization 
 augmentation part        0.1897067 magnetization 

 Broyden mixing:
  rms(total) = 0.18821E-02    rms(broyden)= 0.18819E-02
  rms(prec ) = 0.23367E-02
  weight for this iteration     100.00

 eigenvalues of (default mixing * dielectric matrix)
  average eigenvalue GAMMA=   2.2878
  5.8537  2.5013  2.5013  1.7367  1.4318  0.9951  0.9951

 Free energy of the ion-electron system (eV)
  ---------------------------------------------------
  alpha Z        PSCENC =         3.00596263
  Ewald energy   TEWEN  =      1243.32301128
  -Hartree energ DENC   =     -1489.46733911
  -exchange      EXHF   =         0.00000000
  -V(xc)+E(xc)   XCENC  =        27.42835192
  PAW double counting   =       831.81122038     -833.21749892
  entropy T*S    EENTRO =        -0.00000000
  eigenvalues    EBANDS =       -92.06868588
  atomic energy  EATOM  =       294.30057552
  Solvation  Ediel_sol  =         0.00000000
  ---------------------------------------------------
  free energy    TOTEN  =       -14.88440219 eV

  energy without entropy =      -14.88440219  energy(sigma->0) =      -14.88440219


--------------------------------------------------------------------------------------------------------




--------------------------------------- Iteration      1(  13)  ---------------------------------------


    POTLOK:  cpu time    0.0959: real time    0.0960
    SETDIJ:  cpu time    0.0007: real time    0.0007
     EDDAV:  cpu time    0.1742: real time    0.1742
       DOS:  cpu time    0.0001: real time    0.0001
    CHARGE:  cpu time    0.0168: real time    0.0168
    MIXING:  cpu time    0.0025: real time    0.0025
    --------------------------------------------
      LOOP:  cpu time    0.2903: real time    0.2904

 eigenvalue-minimisations  :   176
 total energy-change (2. order) :-0.1222644E-03  (-0.9998064E-06)
 number of electron       8.0000000 magnetization 
 augmentation part        0.1896949 magnetization 

 Broyden mixing:
  rms(total) = 0.11279E-02    rms(broyden)= 0.11279E-02
  rms(prec ) = 0.16416E-02
  weight for this iteration     100.00

 eigenvalues of (default mixing * dielectric matrix)
  average eigenvalue GAMMA=   2.6191
  7.3341  3.7954  2.5992  2.2624  1.7991  1.1378  1.0123  1.0123

 Free energy of the ion-electron system (eV)
  ---------------------------------------------------
  alpha Z        PSCENC =         3.00596263
  Ewald energy   TEWEN  =      1243.32301128
  -Hartree energ DENC   =     -1489.56474320
  -exchange      EXHF   =         0.00000000
  -V(xc)+E(xc)   XCENC  =        27.42927796
  PAW double counting   =       831.22186858     -832.62764080
  entropy T*S    EENTRO =        -0.00000000
  eigenvalues    EBANDS =       -91.97283641
  atomic energy  EATOM  =       294.30057552
  Solvation  Ediel_sol  =         0.00000000
  ---------------------------------------------------
  free energy    TOTEN  =       -14.88452445 eV

  energy without entropy =      -14.88452445  energy(sigma->0) =      -14.88452445


--------------------------------------------------------------------------------------------------------




--------------------------------------- Iteration      1(  14)  ---------------------------------------


    POTLOK:  cpu time    0.0854: real time    0.0854
    SETDIJ:  cpu time    0.0007: real time    0.0007
     EDDAV:  cpu time    0.1647: real time    0.1647
       DOS:  cpu time    0.0001: real time    0.0001
    CHARGE:  cpu time    0.0167: real time    0.0167
    MIXING:  cpu time    0.0025: real time    0.0024
    --------------------------------------------
      LOOP:  cpu time    0.2700: real time    0.2700

 eigenvalue-minimisations  :   168
 total energy-change (2. order) :-0.7157138E-03  (-0.1150079E-04)
 number of electron       8.0000000 magnetization 
 augmentation part        0.1897115 magnetization 

 Broyden mixing:
  rms(total) = 0.74591E-03    rms(broyden)= 0.74591E-03
  rms(prec ) = 0.81643E-03
  weight for this iteration     100.00

 eigenvalues of (default mixing * dielectric matrix)
  average eigenvalue GAMMA=   2.4552
  7.4841  3.8515  2.4762  2.2154  1.7086  1.5349  1.0112  1.0112  0.8035

 Free energy of the ion-electron system (eV)
  ---------------------------------------------------
  alpha Z        PSCENC =         3.00596263
  Ewald energy   TEWEN  =      1243.32301128
  -Hartree energ DENC   =     -1489.72032872
  -exchange      EXHF   =         0.00000000
  -V(xc)+E(xc)   XCENC  =        27.42684864
  PAW double counting   =       832.78761490     -834.19278210
  entropy T*S    EENTRO =        -0.00000000
  eigenvalues    EBANDS =       -91.81614231
  atomic energy  EATOM  =       294.30057552
  Solvation  Ediel_sol  =         0.00000000
  ---------------------------------------------------
  free energy    TOTEN  =       -14.88524016 eV

  energy without entropy =      -14.88524016  energy(sigma->0) =      -14.88524016


--------------------------------------------------------------------------------------------------------




--------------------------------------- Iteration      1(  15)  ---------------------------------------


    POTLOK:  cpu time    0.0879: real time    0.0879
    SETDIJ:  cpu time    0.0007: real time    0.0007
     EDDAV:  cpu time    0.2326: real time    0.2328
       DOS:  cpu time    0.0001: real time    0.0001
    CHARGE:  cpu time    0.0172: real time    0.0172
    MIXING:  cpu time    0.0027: real time    0.0027
    --------------------------------------------
      LOOP:  cpu time    0.3413: real time    0.3415

 eigenvalue-minimisations  :   200
 total energy-change (2. order) :-0.7785981E-04  (-0.5204866E-06)
 number of electron       8.0000000 magnetization 
 augmentation part        0.1897132 magnetization 

 Broyden mixing:
  rms(total) = 0.27163E-03    rms(broyden)= 0.27163E-03
  rms(prec ) = 0.35924E-03
  weight for this iteration     100.00

 eigenvalues of (default mixing * dielectric matrix)
  average eigenvalue GAMMA=   2.6705
  8.3625  4.7776  3.0326  2.4815  2.1151  1.8015  1.1458  1.0351  1.0351  0.9180

 Free energy of the ion-electron system (eV)
  ---------------------------------------------------
  alpha Z        PSCENC =         3.00596263
  Ewald energy   TEWEN  =      1243.32301128
  -Hartree energ DENC   =     -1489.70897918
  -exchange      EXHF   =         0.00000000
  -V(xc)+E(xc)   XCENC  =        27.42649020
  PAW double counting   =       832.06963269     -833.47498649
  entropy T*S    EENTRO =        -0.00000000
  eigenvalues    EBANDS =       -91.82702467
  atomic energy  EATOM  =       294.30057552
  Solvation  Ediel_sol  =         0.00000000
  ---------------------------------------------------
  free energy    TOTEN  =       -14.88531802 eV

  energy without entropy =      -14.88531802  energy(sigma->0) =      -14.88531802


--------------------------------------------------------------------------------------------------------




--------------------------------------- Iteration      1(  16)  ---------------------------------------


    POTLOK:  cpu time    0.0942: real time    0.0942
    SETDIJ:  cpu time    0.0009: real time    0.0009
     EDDAV:  cpu time    0.1991: real time    0.1991
       DOS:  cpu time    0.0001: real time    0.0001
    CHARGE:  cpu time    0.0203: real time    0.0203
    MIXING:  cpu time    0.0037: real time    0.0037
    --------------------------------------------
      LOOP:  cpu time    0.3183: real time    0.3184

 eigenvalue-minimisations  :   160
 total energy-change (2. order) :-0.5848985E-04  (-0.6940526E-06)
 number of electron       8.0000000 magnetization 
 augmentation part        0.1897083 magnetization 

 Broyden mixing:
  rms(total) = 0.16243E-03    rms(broyden)= 0.16243E-03
  rms(prec ) = 0.19705E-03
  weight for this iteration     100.00

 eigenvalues of (default mixing * dielectric matrix)
  average eigenvalue GAMMA=   2.6880
  8.3365  5.1363  2.9195  2.9195  2.4154  1.9013  1.8753  1.0351  1.0351  0.9971
  0.9971

 Free energy of the ion-electron system (eV)
  ---------------------------------------------------
  alpha Z        PSCENC =         3.00596263
  Ewald energy   TEWEN  =      1243.32301128
  -Hartree energ DENC   =     -1489.75117354
  -exchange      EXHF   =         0.00000000
  -V(xc)+E(xc)   XCENC  =        27.42695701
  PAW double counting   =       831.91385652     -833.31920072
  entropy T*S    EENTRO =        -0.00000000
  eigenvalues    EBANDS =       -91.78536521
  atomic energy  EATOM  =       294.30057552
  Solvation  Ediel_sol  =         0.00000000
  ---------------------------------------------------
  free energy    TOTEN  =       -14.88537651 eV

  energy without entropy =      -14.88537651  energy(sigma->0) =      -14.88537651


--------------------------------------------------------------------------------------------------------




--------------------------------------- Iteration      1(  17)  ---------------------------------------


    POTLOK:  cpu time    0.1052: real time    0.1052
    SETDIJ:  cpu time    0.0010: real time    0.0010
     EDDAV:  cpu time    0.2524: real time    0.2524
       DOS:  cpu time    0.0001: real time    0.0001
    CHARGE:  cpu time    0.0219: real time    0.0219
    MIXING:  cpu time    0.0038: real time    0.0038
    --------------------------------------------
      LOOP:  cpu time    0.3843: real time    0.3843

 eigenvalue-minimisations  :   216
 total energy-change (2. order) :-0.1080371E-04  (-0.5569282E-07)
 number of electron       8.0000000 magnetization 
 augmentation part        0.1897064 magnetization 

 Broyden mixing:
  rms(total) = 0.12861E-03    rms(broyden)= 0.12861E-03
  rms(prec ) = 0.14311E-03
  weight for this iteration     100.00

 eigenvalues of (default mixing * dielectric matrix)
  average eigenvalue GAMMA=   2.6164
  8.4462  5.3104  3.4237  2.7906  2.5011  2.1156  1.8123  1.0805  1.0805  0.9878
  0.9240  0.9240

 Free energy of the ion-electron system (eV)
  ---------------------------------------------------
  alpha Z        PSCENC =         3.00596263
  Ewald energy   TEWEN  =      1243.32301128
  -Hartree energ DENC   =     -1489.76327740
  -exchange      EXHF   =         0.00000000
  -V(xc)+E(xc)   XCENC  =        27.42688454
  PAW double counting   =       831.89403816     -833.29947126
  entropy T*S    EENTRO =        -0.00000000
  eigenvalues    EBANDS =       -91.77311078
  atomic energy  EATOM  =       294.30057552
  Solvation  Ediel_sol  =         0.00000000
  ---------------------------------------------------
  free energy    TOTEN  =       -14.88538732 eV

  energy without entropy =      -14.88538732  energy(sigma->0) =      -14.88538732


--------------------------------------------------------------------------------------------------------




--------------------------------------- Iteration      1(  18)  ---------------------------------------


    POTLOK:  cpu time    0.1117: real time    0.1117
    SETDIJ:  cpu time    0.0010: real time    0.0010
     EDDAV:  cpu time    0.2045: real time    0.2046
       DOS:  cpu time    0.0001: real time    0.0001
    CHARGE:  cpu time    0.0230: real time    0.0230
    MIXING:  cpu time    0.0040: real time    0.0039
    --------------------------------------------
      LOOP:  cpu time    0.3443: real time    0.3443

 eigenvalue-minimisations  :   152
 total energy-change (2. order) :-0.2029587E-05  (-0.1005737E-07)
 number of electron       8.0000000 magnetization 
 augmentation part        0.1897075 magnetization 

 Broyden mixing:
  rms(total) = 0.53377E-04    rms(broyden)= 0.53377E-04
  rms(prec ) = 0.68980E-04
  weight for this iteration     100.00

 eigenvalues of (default mixing * dielectric matrix)
  average eigenvalue GAMMA=   2.7239
  8.4564  5.6550  4.2811  3.0100  2.6417  2.4150  2.0962  1.8170  1.0483  1.0483
  0.9631  0.9896  0.9896

 Free energy of the ion-electron system (eV)
  ---------------------------------------------------
  alpha Z        PSCENC =         3.00596263
  Ewald energy   TEWEN  =      1243.32301128
  -Hartree energ DENC   =     -1489.76839756
  -exchange      EXHF   =         0.00000000
  -V(xc)+E(xc)   XCENC  =        27.42685219
  PAW double counting   =       832.00125829     -833.40663187
  entropy T*S    EENTRO =        -0.00000000
  eigenvalues    EBANDS =       -91.76801982
  atomic energy  EATOM  =       294.30057552
  Solvation  Ediel_sol  =         0.00000000
  ---------------------------------------------------
  free energy    TOTEN  =       -14.88538935 eV

  energy without entropy =      -14.88538935  energy(sigma->0) =      -14.88538935


--------------------------------------------------------------------------------------------------------




--------------------------------------- Iteration      1(  19)  ---------------------------------------


    POTLOK:  cpu time    0.1156: real time    0.1156
    SETDIJ:  cpu time    0.0011: real time    0.0011
     EDDAV:  cpu time    0.2332: real time    0.2333
       DOS:  cpu time    0.0001: real time    0.0001
    CHARGE:  cpu time    0.0230: real time    0.0230
    MIXING:  cpu time    0.0040: real time    0.0040
    --------------------------------------------
      LOOP:  cpu time    0.3769: real time    0.3771

 eigenvalue-minimisations  :   176
 total energy-change (2. order) :-0.3140198E-05  (-0.3203447E-08)
 number of electron       8.0000000 magnetization 
 augmentation part        0.1897074 magnetization 

 Broyden mixing:
  rms(total) = 0.43908E-04    rms(broyden)= 0.43908E-04
  rms(prec ) = 0.45880E-04
  weight for this iteration     100.00

 eigenvalues of (default mixing * dielectric matrix)
  average eigenvalue GAMMA=   2.7407
  8.4790  6.0476  4.5501  3.1680  2.4883  2.4165  2.4165  1.9529  1.8166  0.9897
  0.9897  0.9788  1.0382  1.0382

 Free energy of the ion-electron system (eV)
  ---------------------------------------------------
  alpha Z        PSCENC =         3.00596263
  Ewald energy   TEWEN  =      1243.32301128
  -Hartree energ DENC   =     -1489.77937854
  -exchange      EXHF   =         0.00000000
  -V(xc)+E(xc)   XCENC  =        27.42689645
  PAW double counting   =       832.03015648     -833.43550050
  entropy T*S    EENTRO =        -0.00000000
  eigenvalues    EBANDS =       -91.75711580
  atomic energy  EATOM  =       294.30057552
  Solvation  Ediel_sol  =         0.00000000
  ---------------------------------------------------
  free energy    TOTEN  =       -14.88539249 eV

  energy without entropy =      -14.88539249  energy(sigma->0) =      -14.88539249


--------------------------------------------------------------------------------------------------------




--------------------------------------- Iteration      1(  20)  ---------------------------------------


    POTLOK:  cpu time    0.1107: real time    0.1107
    SETDIJ:  cpu time    0.0010: real time    0.0010
     EDDAV:  cpu time    0.2541: real time    0.2541
       DOS:  cpu time    0.0001: real time    0.0001
    --------------------------------------------
      LOOP:  cpu time    0.3659: real time    0.3659

 eigenvalue-minimisations  :   208
 total energy-change (2. order) :-0.9928546E-06  (-0.5148815E-09)
 number of electron       8.0000000 magnetization 
 augmentation part        0.1897074 magnetization 

 Free energy of the ion-electron system (eV)
  ---------------------------------------------------
  alpha Z        PSCENC =         3.00596263
  Ewald energy   TEWEN  =      1243.32301128
  -Hartree energ DENC   =     -1489.78018160
  -exchange      EXHF   =         0.00000000
  -V(xc)+E(xc)   XCENC  =        27.42689392
  PAW double counting   =       831.99340194     -833.39876077
  entropy T*S    EENTRO =        -0.00000000
  eigenvalues    EBANDS =       -91.75629641
  atomic energy  EATOM  =       294.30057552
  Solvation  Ediel_sol  =         0.00000000
  ---------------------------------------------------
  free energy    TOTEN  =       -14.88539348 eV

  energy without entropy =      -14.88539348  energy(sigma->0) =      -14.88539348


--------------------------------------------------------------------------------------------------------




 average (electrostatic) potential at core
  the test charge radii are     0.6991
  (the norm of the test charge is              1.0000)
       1 -58.2659       2 -58.2659
 
 
 
 E-fermi :  -2.9230     XC(G=0):  -2.1549     alpha+bet : -1.8337

 Fermi energy:        -2.9229554428

 k-point     1 :       0.1250    0.1250    0.0000
  band No.  band energies     occupation 
      1     -21.8303      2.00000
      2      -9.8718      2.00000
      3      -8.6518      2.00000
      4      -4.2722      2.00000
      5       0.8753      0.00000
      6       1.6318      0.00000
      7       1.8850      0.00000
      8       2.0526      0.00000

 k-point     2 :       0.3750    0.1250    0.0000
  band No.  band energies     occupation 
      1     -19.3009      2.00000
      2     -11.8276      2.00000
      3      -8.4821      2.00000
      4      -6.7074      2.00000
      5       0.0384      0.00000
      6       1.4642      0.00000
      7       4.9651      0.00000
      8       5.7892      0.00000

 k-point     3 :      -0.3750    0.1250    0.0000
  band No.  band energies     occupation 
      1     -16.6921      2.00000
      2     -13.2951      2.00000
      3     -10.6924      2.00000
      4      -3.4666      2.00000
      5      -2.2339      0.00000
      6      -0.5026      0.00000
      7       9.3886      0.00000
      8       9.7285      0.00000

 k-point     4 :      -0.1250    0.1250    0.0000
  band No.  band energies     occupation 
      1     -20.6855      2.00000
      2      -9.2017      2.00000
      3      -8.4731      2.00000
      4      -7.0907      2.00000
      5       0.2906      0.00000
      6       2.5772      0.00000
      7       3.1813      0.00000
      8       3.6324      0.00000

 k-point     5 :       0.1250    0.3750    0.0000
  band No.  band energies     occupation 
      1     -20.2670      2.00000
      2     -10.5432      2.00000
      3      -8.3418      2.00000
      4      -8.0559      2.00000
      5       2.8137      0.00000
      6       3.5574      0.00000
      7       3.8927      0.00000
      8       4.0326      0.00000

 k-point     6 :       0.3750    0.3750    0.0000
  band No.  band energies     occupation 
      1     -20.0516      2.00000
      2     -13.8764      2.00000
      3      -7.8065      2.00000
      4      -4.9035      2.00000
      5       0.2377      0.00000
      6       3.8512      0.00000
      7       4.7870      0.00000
      8       5.0405      0.00000

 k-point     7 :      -0.3750    0.3750    0.0000
  band No.  band energies     occupation 
      1     -18.4727      2.00000
      2     -13.4874      2.00000
      3      -9.4061      2.00000
      4      -5.8932      2.00000
      5       0.1873      0.00000
      6       3.2158      0.00000
      7       7.1146      0.00000
      8       7.3272      0.00000

 k-point     8 :      -0.1250    0.3750    0.0000
  band No.  band energies     occupation 
      1     -17.5252      2.00000
      2     -14.8824      2.00000
      3      -7.6872      2.00000
      4      -5.2840      2.00000
      5      -0.2047      0.00000
      6       2.6550      0.00000
      7       7.9888      0.00000
      8       8.9330      0.00000


--------------------------------------------------------------------------------------------------------


 soft charge-density along one line, spin component           1
         0         1         2         3         4         5         6         7         8         9
 total charge-density along one line
 
 pseudopotential strength for first ion, spin component:           1
 10.230  13.605   0.000   0.000  -0.000  -0.003  -0.000   0.007
 13.605  18.091   0.000   0.000  -0.000  -0.004  -0.000   0.010
  0.000   0.000  -4.347  -0.000   0.004   8.501   0.000  -0.004
  0.000   0.000  -0.000  -4.338   0.000   0.000   8.488  -0.000
 -0.000  -0.000   0.004   0.000  -4.357  -0.004  -0.000   8.517
 -0.003  -0.004   8.501   0.000  -0.004 -18.762  -0.000  -0.001
 -0.000  -0.000   0.000   8.488  -0.000  -0.000 -18.742   0.000
  0.007   0.010  -0.004  -0.000   8.517  -0.001   0.000 -18.784
 total augmentation occupancy for first ion, spin component:           1
  7.899  -3.497   0.352   0.000  -1.115   0.048   0.000  -0.164
 -3.497   1.650  -0.177   0.000   0.607  -0.023   0.000   0.084
  0.352  -0.177   1.622   0.000  -0.335   0.138   0.000  -0.018
  0.000   0.000   0.000   1.259  -0.000   0.000   0.074   0.000
 -1.115   0.607  -0.335  -0.000   1.886  -0.019   0.000   0.166
  0.048  -0.023   0.138   0.000  -0.019   0.014  -0.000  -0.002
  0.000   0.000   0.000   0.074   0.000  -0.000   0.005  -0.000
 -0.164   0.084  -0.018   0.000   0.166  -0.002  -0.000   0.017


------------------------ aborting loop because EDIFF is reached ----------------------------------------


    CHARGE:  cpu time    0.0225: real time    0.0225
    FORLOC:  cpu time    0.0042: real time    0.0042
    FORNL :  cpu time    0.0122: real time    0.0122
    STRESS:  cpu time    0.1463: real time    0.1464
    FORCOR:  cpu time    0.0958: real time    0.0958
    FORHAR:  cpu time    0.0228: real time    0.0228
    MIXING:  cpu time    0.0030: real time    0.0030
    OFIELD:  cpu time    0.0000: real time    0.0000

 ---------------------------------------------------------------------------------------------

         DFTD3 V3.0 Rev 1        
 IVDW         = 12
 DF pbe       
 parameters
 VDW_S6       =    1.0000
 VDW_S8       =    0.7875
 VDW_A1       =    0.4289
 VDW_A2       =    4.4407
 k1-k3        =   16.0000    1.3333   -4.0000
 VDW_RADIUS   =   50.2022 A
 VDW_CNRADIUS =   21.1671 A
 Edisp (eV)   -0.15967

 E6    (eV) :    -0.1095
 E8    (eV) :    -0.0502
 % E8        : 31.42
    FORVDW:  cpu time    0.0043: real time    0.0043

  FORCE on cell =-STRESS in cart. coord.  units (eV):
  Direction    XX          YY          ZZ          XY          YZ          ZX
  --------------------------------------------------------------------------------------
  Alpha Z     3.00596     3.00596     3.00596
  Ewald    1514.31672  1494.75143 -1765.74520   -27.12066    -0.00000    -0.00000
  Hartree  1473.21430  1476.52947 -1459.96324    -4.02992    -0.00000    -0.00000
  E(xc)     -29.61758   -29.60234   -30.74160     0.05312     0.00000    -0.00000
  Local   -3066.03598 -3058.63687  3122.22176    24.95060    -0.00000     0.00000
  n-local    -6.98689    -6.25800    -6.50066     2.32040     0.00000     0.00000
  augment    -0.85189    -0.76045    -0.69042     0.05352    -0.00000     0.00000
  Kinetic   120.58123   123.08002   138.37586   -13.31064    -0.00000    -0.00000
  Fock        0.00000     0.00000     0.00000     0.00000     0.00000     0.00000
  vdW         0.11606     0.29643    -0.00040    -0.09484    -0.00000     0.00000
  -------------------------------------------------------------------------------------
  Total       7.74193     2.40563    -0.03793   -17.17843     0.00000     0.00000
  in kB     113.47314    35.25923    -0.55600  -251.78354     0.00000     0.00000
  external pressure =       49.39 kB  Pullay stress =        0.00 kB


 VOLUME and BASIS-vectors are now :
 -----------------------------------------------------------------------------
  energy-cutoff  :      600.00
  volume of cell :      109.31
      direct lattice vectors                 reciprocal lattice vectors
     2.466000000  0.445968677  0.000000000     0.461403387 -0.309036846  0.000000000
     1.689067040  2.521839268  0.000000000    -0.081595786  0.451186865  0.000000000
     0.000000000  0.000000000 20.000000000     0.000000000  0.000000000  0.050000000

  length of vectors
     2.506001608  3.035229935 20.000000000     0.555334906  0.458505681  0.050000000


 FORCES acting on ions
    electron-ion (+dipol)            ewald-force                    non-local-force                 convergence-correction
 -----------------------------------------------------------------------------------------------
   -.762E+02 0.186E+02 0.411E-08   0.806E+02 -.211E+02 0.528E-20   0.159E+01 -.166E+01 -.207E-24   -.305E-04 0.245E-04 0.430E-13
   0.762E+02 -.186E+02 -.411E-08   -.806E+02 0.211E+02 -.484E-20   -.159E+01 0.166E+01 0.103E-24   0.305E-04 -.245E-04 0.454E-13
 -----------------------------------------------------------------------------------------------
   0.366E-14 -.334E-14 -.485E-11   0.000E+00 0.711E-14 0.436E-21   -.222E-15 0.222E-15 -.103E-24   -.430E-15 -.110E-14 0.884E-13
 
 
 POSITION                                       TOTAL-FORCE (eV/Angst)
 -----------------------------------------------------------------------------------
      1.38502      0.98927     10.00000         5.889145     -4.125298      0.000000
      2.77004      1.97854     10.00000        -5.889145      4.125298     -0.000000
 -----------------------------------------------------------------------------------
    total drift:                                0.000000      0.000000     -0.000000


--------------------------------------------------------------------------------------------------------



  FREE ENERGIE OF THE ION-ELECTRON SYSTEM (eV)
  ---------------------------------------------------
  free  energy   TOTEN  =       -15.04506095 eV

  energy  without entropy=      -15.04506095  energy(sigma->0) =      -15.04506095
 


--------------------------------------------------------------------------------------------------------


    POTLOK:  cpu time    0.0934: real time    0.0935


--------------------------------------------------------------------------------------------------------




--------------------------------------------------------------------------------------------------------


    WAVPRE:  cpu time    0.0166: real time    0.0166
    FEWALD:  cpu time    0.0001: real time    0.0001
    ORTHCH:  cpu time    0.0024: real time    0.0024
     LOOP+:  cpu time    6.6777: real time    6.6795


--------------------------------------- Iteration      2(   1)  ---------------------------------------


    POTLOK:  cpu time    0.0921: real time    0.0921
    SETDIJ:  cpu time    0.0008: real time    0.0008
     EDDAV:  cpu time    0.1443: real time    0.1443
       DOS:  cpu time    0.0001: real time    0.0001
    CHARGE:  cpu time    0.0182: real time    0.0182
    MIXING:  cpu time    0.0021: real time    0.0021
    --------------------------------------------
      LOOP:  cpu time    0.2576: real time    0.2576

 eigenvalue-minimisations  :   128
 total energy-change (2. order) : 0.1324125E+01  (-0.5756083E+02)
 number of electron       8.0000000 magnetization 
 augmentation part        0.0805595 magnetization 

 Broyden mixing:
  rms(total) = 0.70359E+00    rms(broyden)= 0.70356E+00
  rms(prec ) = 0.75702E+00
  weight for this iteration     100.00

 Free energy of the ion-electron system (eV)
  ---------------------------------------------------
  alpha Z        PSCENC =         3.00596263
  Ewald energy   TEWEN  =      1225.68106146
  -Hartree energ DENC   =     -1477.41655665
  -exchange      EXHF   =         0.00000000
  -V(xc)+E(xc)   XCENC  =        26.59216255
  PAW double counting   =       831.98314081     -833.38850567
  entropy T*S    EENTRO =        -0.00312444
  eigenvalues    EBANDS =       -84.31598340
  atomic energy  EATOM  =       294.30057552
  Solvation  Ediel_sol  =         0.00000000
  ---------------------------------------------------
  free energy    TOTEN  =       -13.56126718 eV

  energy without entropy =      -13.55814274  energy(sigma->0) =      -13.55970496


--------------------------------------------------------------------------------------------------------




--------------------------------------- Iteration      2(   2)  ---------------------------------------


    POTLOK:  cpu time    0.0825: real time    0.0825
    SETDIJ:  cpu time    0.0007: real time    0.0007
     EDDAV:  cpu time    0.1768: real time    0.1768
       DOS:  cpu time    0.0001: real time    0.0001
    CHARGE:  cpu time    0.0180: real time    0.0180
    MIXING:  cpu time    0.0025: real time    0.0025
    --------------------------------------------
      LOOP:  cpu time    0.2805: real time    0.2805

 eigenvalue-minimisations  :   176
 total energy-change (2. order) : 0.2895623E-01  (-0.1285763E+01)
 number of electron       8.0000000 magnetization 
 augmentation part        0.0991757 magnetization 

 Broyden mixing:
  rms(total) = 0.33870E+00    rms(broyden)= 0.33867E+00
  rms(prec ) = 0.35703E+00
  weight for this iteration     100.00

 eigenvalues of (default mixing * dielectric matrix)
  average eigenvalue GAMMA=   1.2802
  1.2802

 Free energy of the ion-electron system (eV)
  ---------------------------------------------------
  alpha Z        PSCENC =         3.00596263
  Ewald energy   TEWEN  =      1225.68106146
  -Hartree energ DENC   =     -1471.07266373
  -exchange      EXHF   =         0.00000000
  -V(xc)+E(xc)   XCENC  =        26.33938456
  PAW double counting   =       745.63137934     -746.88395988
  entropy T*S    EENTRO =        -0.00000046
  eigenvalues    EBANDS =       -90.53405040
  atomic energy  EATOM  =       294.30057552
  Solvation  Ediel_sol  =         0.00000000
  ---------------------------------------------------
  free energy    TOTEN  =       -13.53231095 eV

  energy without entropy =      -13.53231049  energy(sigma->0) =      -13.53231072


--------------------------------------------------------------------------------------------------------




--------------------------------------- Iteration      2(   3)  ---------------------------------------


    POTLOK:  cpu time    0.0846: real time    0.0846
    SETDIJ:  cpu time    0.0007: real time    0.0007
     EDDAV:  cpu time    0.2048: real time    0.2049
       DOS:  cpu time    0.0001: real time    0.0001
    CHARGE:  cpu time    0.0176: real time    0.0176
    MIXING:  cpu time    0.0022: real time    0.0022
    --------------------------------------------
      LOOP:  cpu time    0.3100: real time    0.3101

 eigenvalue-minimisations  :   216
 total energy-change (2. order) : 0.1902388E+00  (-0.5425194E-01)
 number of electron       8.0000000 magnetization 
 augmentation part        0.1022408 magnetization 

 Broyden mixing:
  rms(total) = 0.15327E+00    rms(broyden)= 0.15327E+00
  rms(prec ) = 0.15940E+00
  weight for this iteration     100.00

 eigenvalues of (default mixing * dielectric matrix)
  average eigenvalue GAMMA=   1.6065
  1.0331  2.1800

 Free energy of the ion-electron system (eV)
  ---------------------------------------------------
  alpha Z        PSCENC =         3.00596263
  Ewald energy   TEWEN  =      1225.68106146
  -Hartree energ DENC   =     -1471.65329905
  -exchange      EXHF   =         0.00000000
  -V(xc)+E(xc)   XCENC  =        26.39666112
  PAW double counting   =       633.05413441     -634.30178134
  entropy T*S    EENTRO =        -0.00000000
  eigenvalues    EBANDS =       -89.82538689
  atomic energy  EATOM  =       294.30057552
  Solvation  Ediel_sol  =         0.00000000
  ---------------------------------------------------
  free energy    TOTEN  =       -13.34207213 eV

  energy without entropy =      -13.34207213  energy(sigma->0) =      -13.34207213


--------------------------------------------------------------------------------------------------------




--------------------------------------- Iteration      2(   4)  ---------------------------------------


    POTLOK:  cpu time    0.0839: real time    0.0839
    SETDIJ:  cpu time    0.0007: real time    0.0007
     EDDAV:  cpu time    0.1912: real time    0.1912
       DOS:  cpu time    0.0001: real time    0.0001
    CHARGE:  cpu time    0.0182: real time    0.0182
    MIXING:  cpu time    0.0022: real time    0.0022
    --------------------------------------------
      LOOP:  cpu time    0.2963: real time    0.2963

 eigenvalue-minimisations  :   192
 total energy-change (2. order) : 0.1692611E-01  (-0.1201884E-01)
 number of electron       8.0000000 magnetization 
 augmentation part        0.1015921 magnetization 

 Broyden mixing:
  rms(total) = 0.34297E-01    rms(broyden)= 0.34295E-01
  rms(prec ) = 0.35721E-01
  weight for this iteration     100.00

 eigenvalues of (default mixing * dielectric matrix)
  average eigenvalue GAMMA=   1.6164
  1.0248  2.1034  1.7209

 Free energy of the ion-electron system (eV)
  ---------------------------------------------------
  alpha Z        PSCENC =         3.00596263
  Ewald energy   TEWEN  =      1225.68106146
  -Hartree energ DENC   =     -1471.88330156
  -exchange      EXHF   =         0.00000000
  -V(xc)+E(xc)   XCENC  =        26.44565451
  PAW double counting   =       550.02368425     -551.26658616
  entropy T*S    EENTRO =        -0.00000000
  eigenvalues    EBANDS =       -89.63219668
  atomic energy  EATOM  =       294.30057552
  Solvation  Ediel_sol  =         0.00000000
  ---------------------------------------------------
  free energy    TOTEN  =       -13.32514603 eV

  energy without entropy =      -13.32514603  energy(sigma->0) =      -13.32514603


--------------------------------------------------------------------------------------------------------




--------------------------------------- Iteration      2(   5)  ---------------------------------------


    POTLOK:  cpu time    0.0845: real time    0.0846
    SETDIJ:  cpu time    0.0007: real time    0.0007
     EDDAV:  cpu time    0.1837: real time    0.1837
       DOS:  cpu time    0.0001: real time    0.0001
    CHARGE:  cpu time    0.0176: real time    0.0176
    MIXING:  cpu time    0.0022: real time    0.0022
    --------------------------------------------
      LOOP:  cpu time    0.2888: real time    0.2889

 eigenvalue-minimisations  :   192
 total energy-change (2. order) :-0.3776591E-03  (-0.9869248E-03)
 number of electron       8.0000000 magnetization 
 augmentation part        0.1016985 magnetization 

 Broyden mixing:
  rms(total) = 0.13042E-01    rms(broyden)= 0.13042E-01
  rms(prec ) = 0.13647E-01
  weight for this iteration     100.00

 eigenvalues of (default mixing * dielectric matrix)
  average eigenvalue GAMMA=   1.6567
  0.9537  1.0408  1.9439  2.6882

 Free energy of the ion-electron system (eV)
  ---------------------------------------------------
  alpha Z        PSCENC =         3.00596263
  Ewald energy   TEWEN  =      1225.68106146
  -Hartree energ DENC   =     -1471.42997911
  -exchange      EXHF   =         0.00000000
  -V(xc)+E(xc)   XCENC  =        26.43448356
  PAW double counting   =       544.94842787     -546.18438917
  entropy T*S    EENTRO =        -0.00000000
  eigenvalues    EBANDS =       -90.08166645
  atomic energy  EATOM  =       294.30057552
  Solvation  Ediel_sol  =         0.00000000
  ---------------------------------------------------
  free energy    TOTEN  =       -13.32552369 eV

  energy without entropy =      -13.32552369  energy(sigma->0) =      -13.32552369


--------------------------------------------------------------------------------------------------------




--------------------------------------- Iteration      2(   6)  ---------------------------------------


    POTLOK:  cpu time    0.0850: real time    0.0850
    SETDIJ:  cpu time    0.0007: real time    0.0007
     EDDAV:  cpu time    0.1863: real time    0.1865
       DOS:  cpu time    0.0001: real time    0.0001
    CHARGE:  cpu time    0.0184: real time    0.0184
    MIXING:  cpu time    0.0023: real time    0.0023
    --------------------------------------------
      LOOP:  cpu time    0.2928: real time    0.2931

 eigenvalue-minimisations  :   160
 total energy-change (2. order) :-0.2266673E-03  (-0.3386599E-04)
 number of electron       8.0000000 magnetization 
 augmentation part        0.1017621 magnetization 

 Broyden mixing:
  rms(total) = 0.22836E-02    rms(broyden)= 0.22836E-02
  rms(prec ) = 0.31148E-02
  weight for this iteration     100.00

 eigenvalues of (default mixing * dielectric matrix)
  average eigenvalue GAMMA=   1.6253
  2.6332  0.9460  1.0299  1.7588  1.7588

 Free energy of the ion-electron system (eV)
  ---------------------------------------------------
  alpha Z        PSCENC =         3.00596263
  Ewald energy   TEWEN  =      1225.68106146
  -Hartree energ DENC   =     -1471.15842974
  -exchange      EXHF   =         0.00000000
  -V(xc)+E(xc)   XCENC  =        26.43177719
  PAW double counting   =       540.49114704     -541.72462347
  entropy T*S    EENTRO =        -0.00000000
  eigenvalues    EBANDS =       -90.35322099
  atomic energy  EATOM  =       294.30057552
  Solvation  Ediel_sol  =         0.00000000
  ---------------------------------------------------
  free energy    TOTEN  =       -13.32575035 eV

  energy without entropy =      -13.32575035  energy(sigma->0) =      -13.32575035


--------------------------------------------------------------------------------------------------------




--------------------------------------- Iteration      2(   7)  ---------------------------------------


    POTLOK:  cpu time    0.0852: real time    0.0852
    SETDIJ:  cpu time    0.0008: real time    0.0008
[...]
  Local   -3097.85130 -3016.08584  3122.98496   -13.04422    -0.00000     0.00000
  n-local    -4.62209    -4.23998    -4.67051     1.16083     0.00000    -0.00000
  augment    -0.66843    -0.62275    -0.57385    -0.00503     0.00000    -0.00000
  Kinetic   111.79519   122.88002   135.93357   -10.52181    -0.00000     0.00000
  Fock        0.00000     0.00000     0.00000     0.00000     0.00000     0.00000
  vdW         0.06882     0.41857    -0.00041    -0.11055     0.00000    -0.00000
  -------------------------------------------------------------------------------------
  Total       0.96273     2.69667    -0.03418    -8.26737     0.00000     0.00000
  in kB      14.11063    39.52493    -0.50094  -121.17460     0.00000     0.00000
  external pressure =       17.71 kB  Pullay stress =        0.00 kB


 VOLUME and BASIS-vectors are now :
 -----------------------------------------------------------------------------
  energy-cutoff  :      600.00
  volume of cell :      109.31
      direct lattice vectors                 reciprocal lattice vectors
     2.466000000  0.445968677  0.000000000     0.461403387 -0.309036846  0.000000000
     1.689067040  2.521839268  0.000000000    -0.081595786  0.451186865  0.000000000
     0.000000000  0.000000000 20.000000000     0.000000000  0.000000000  0.050000000

  length of vectors
     2.506001608  3.035229935 20.000000000     0.555334906  0.458505681  0.050000000


 FORCES acting on ions
    electron-ion (+dipol)            ewald-force                    non-local-force                 convergence-correction
 -----------------------------------------------------------------------------------------------
   0.325E+02 -.279E+02 0.935E-08   -.337E+02 0.308E+02 -.314E-19   0.113E+01 -.279E+01 -.165E-23   -.998E-03 -.297E-03 0.157E-11
   -.325E+02 0.279E+02 -.935E-08   0.337E+02 -.308E+02 0.316E-19   -.113E+01 0.279E+01 -.165E-23   0.998E-03 0.297E-03 0.157E-11
 -----------------------------------------------------------------------------------------------
   0.576E-13 -.301E-12 -.433E-11   -.142E-13 0.711E-14 0.203E-21   0.222E-15 0.000E+00 -.331E-23   -.710E-15 0.719E-14 0.314E-11
 
 
 POSITION                                       TOTAL-FORCE (eV/Angst)
 -----------------------------------------------------------------------------------
      1.83053      0.62833     10.00000         0.016226      0.003537     -0.000000
      2.32454      2.33948     10.00000        -0.016226     -0.003537      0.000000
 -----------------------------------------------------------------------------------
    total drift:                                0.000000     -0.000000     -0.000000


--------------------------------------------------------------------------------------------------------



  FREE ENERGIE OF THE ION-ELECTRON SYSTEM (eV)
  ---------------------------------------------------
  free  energy   TOTEN  =       -15.22750274 eV

  energy  without entropy=      -15.22750274  energy(sigma->0) =      -15.22750274
 
 d Force = 0.1967960E-05[-0.200E-04, 0.239E-04]  d Energy = 0.2878744E-05-0.911E-06
 d Force =-0.2115432E-01[-0.214E-01,-0.209E-01]  d Ewald  =-0.2115424E-01-0.792E-07


--------------------------------------------------------------------------------------------------------


    POTLOK:  cpu time    0.0927: real time    0.0927


--------------------------------------------------------------------------------------------------------


 Conjugate gradient step on ions:
 trial-energy change:   -0.000003  1 .order   -0.000002   -0.000024    0.000020
  (g-gl).g = 0.651E-03      g.g   = 0.277E-04  gl.gl    = 0.346E-01
 g(Force)  = 0.277E-04   g(Stress)= 0.000E+00 ortho     = 0.681E-04
 gamma     =   0.01882
 trial     =   0.82497
 opt step  =   0.44947  (harmonic =   0.44947) maximal distance =0.00044918
 next E    =   -15.227506   (d E  =  -0.00001)


--------------------------------------------------------------------------------------------------------


    WAVPRE:  cpu time    0.0164: real time    0.0164
    FEWALD:  cpu time    0.0001: real time    0.0001
    ORTHCH:  cpu time    0.0026: real time    0.0026
     LOOP+:  cpu time    1.8826: real time    1.8827


--------------------------------------- Iteration     13(   1)  ---------------------------------------


    POTLOK:  cpu time    0.0870: real time    0.0870
    SETDIJ:  cpu time    0.0007: real time    0.0007
     EDDAV:  cpu time    0.1456: real time    0.1456
       DOS:  cpu time    0.0001: real time    0.0001
    CHARGE:  cpu time    0.0180: real time    0.0180
    MIXING:  cpu time    0.0021: real time    0.0021
    --------------------------------------------
      LOOP:  cpu time    0.2536: real time    0.2536

 eigenvalue-minimisations  :   136
 total energy-change (2. order) :-0.9230544E-04  (-0.9814700E-04)
 number of electron       8.0000000 magnetization 
 augmentation part        0.1603684 magnetization 

 Broyden mixing:
  rms(total) = 0.72767E-03    rms(broyden)= 0.72725E-03
  rms(prec ) = 0.77102E-03
  weight for this iteration     100.00

 Free energy of the ion-electron system (eV)
  ---------------------------------------------------
  alpha Z        PSCENC =         3.00596263
  Ewald energy   TEWEN  =      1236.49964035
  -Hartree energ DENC   =     -1481.90337993
  -exchange      EXHF   =         0.00000000
  -V(xc)+E(xc)   XCENC  =        27.03319808
  PAW double counting   =       718.09271200     -719.42813214
  entropy T*S    EENTRO =        -0.00000000
  eigenvalues    EBANDS =       -92.66644145
  atomic energy  EATOM  =       294.30057552
  Solvation  Ediel_sol  =         0.00000000
  ---------------------------------------------------
  free energy    TOTEN  =       -15.06586493 eV

  energy without entropy =      -15.06586493  energy(sigma->0) =      -15.06586493


--------------------------------------------------------------------------------------------------------




--------------------------------------- Iteration     13(   2)  ---------------------------------------


    POTLOK:  cpu time    0.0854: real time    0.0854
    SETDIJ:  cpu time    0.0007: real time    0.0007
     EDDAV:  cpu time    0.1767: real time    0.1767
       DOS:  cpu time    0.0001: real time    0.0001
    CHARGE:  cpu time    0.0180: real time    0.0180
    MIXING:  cpu time    0.0021: real time    0.0021
    --------------------------------------------
      LOOP:  cpu time    0.2830: real time    0.2830

 eigenvalue-minimisations  :   176
 total energy-change (2. order) : 0.2253125E-06  (-0.1111687E-05)
 number of electron       8.0000000 magnetization 
 augmentation part        0.1603713 magnetization 

 Broyden mixing:
  rms(total) = 0.38685E-03    rms(broyden)= 0.38681E-03
  rms(prec ) = 0.41161E-03
  weight for this iteration     100.00

 eigenvalues of (default mixing * dielectric matrix)
  average eigenvalue GAMMA=   1.5338
  1.5338

 Free energy of the ion-electron system (eV)
  ---------------------------------------------------
  alpha Z        PSCENC =         3.00596263
  Ewald energy   TEWEN  =      1236.49964035
  -Hartree energ DENC   =     -1481.90175623
  -exchange      EXHF   =         0.00000000
  -V(xc)+E(xc)   XCENC  =        27.03312276
  PAW double counting   =       717.95618206     -719.29154976
  entropy T*S    EENTRO =        -0.00000000
  eigenvalues    EBANDS =       -92.66804205
  atomic energy  EATOM  =       294.30057552
  Solvation  Ediel_sol  =         0.00000000
  ---------------------------------------------------
  free energy    TOTEN  =       -15.06586471 eV

  energy without entropy =      -15.06586471  energy(sigma->0) =      -15.06586471


--------------------------------------------------------------------------------------------------------




--------------------------------------- Iteration     13(   3)  ---------------------------------------


    POTLOK:  cpu time    0.0820: real time    0.0820
    SETDIJ:  cpu time    0.0007: real time    0.0007
     EDDAV:  cpu time    0.1771: real time    0.1771
       DOS:  cpu time    0.0001: real time    0.0001
    --------------------------------------------
      LOOP:  cpu time    0.2599: real time    0.2599

 eigenvalue-minimisations  :   176
 total energy-change (2. order) : 0.4258676E-06  (-0.1201801E-06)
 number of electron       8.0000000 magnetization 
 augmentation part        0.1603713 magnetization 

 Free energy of the ion-electron system (eV)
  ---------------------------------------------------
  alpha Z        PSCENC =         3.00596263
  Ewald energy   TEWEN  =      1236.49964035
  -Hartree energ DENC   =     -1481.90031913
  -exchange      EXHF   =         0.00000000
  -V(xc)+E(xc)   XCENC  =        27.03305604
  PAW double counting   =       717.92442070     -719.25974743
  entropy T*S    EENTRO =        -0.00000000
  eigenvalues    EBANDS =       -92.66945297
  atomic energy  EATOM  =       294.30057552
  Solvation  Ediel_sol  =         0.00000000
  ---------------------------------------------------
  free energy    TOTEN  =       -15.06586428 eV

  energy without entropy =      -15.06586428  energy(sigma->0) =      -15.06586428


--------------------------------------------------------------------------------------------------------




 average (electrostatic) potential at core
  the test charge radii are     0.6991
  (the norm of the test charge is              1.0000)
       1 -58.7927       2 -58.7927
 
 
 
 E-fermi :  -2.2355     XC(G=0):  -2.1440     alpha+bet : -1.8337

 Fermi energy:        -2.2355175616

 k-point     1 :       0.1250    0.1250    0.0000
  band No.  band energies     occupation 
      1     -21.9228      2.00000
      2     -10.8864      2.00000
      3      -9.8970      2.00000
      4      -1.4930      0.00000
      5       0.9215      0.00000
      6       1.6851      0.00000
      7       1.9635      0.00000
      8       2.1101      0.00000

 k-point     2 :       0.3750    0.1250    0.0000
  band No.  band energies     occupation 
      1     -19.1295      2.00000
      2     -13.7069      2.00000
      3      -6.4644      2.00000
      4      -6.2160      2.00000
      5      -1.6904      0.00000
      6       0.2979      0.00000
      7       4.9470      0.00000
      8       5.7520      0.00000

 k-point     3 :      -0.3750    0.1250    0.0000
  band No.  band energies     occupation 
      1     -16.3836      2.00000
      2     -13.1193      2.00000
      3     -11.4556      2.00000
      4      -3.8461      2.00000
      5      -3.3571      2.00000
      6      -0.2865      0.00000
      7       8.5748      0.00000
      8       9.7739      0.00000

 k-point     4 :      -0.1250    0.1250    0.0000
  band No.  band energies     occupation 
      1     -20.7258      2.00000
      2      -9.8623      2.00000
      3      -8.6560      2.00000
      4      -7.4109      2.00000
      5       1.1371      0.00000
      6       2.5778      0.00000
      7       3.2140      0.00000
      8       3.7364      0.00000

 k-point     5 :       0.1250    0.3750    0.0000
  band No.  band energies     occupation 
      1     -20.2986      2.00000
      2     -10.8634      2.00000
      3      -8.9102      2.00000
      4      -8.2035      2.00000
      5       3.0431      0.00000
      6       3.1212      0.00000
      7       3.9911      0.00000
      8       4.3422      0.00000

 k-point     6 :       0.3750    0.3750    0.0000
  band No.  band energies     occupation 
      1     -19.8703      2.00000
      2     -15.5755      2.00000
      3      -7.2286      2.00000
      4      -2.7634      2.00000
      5      -1.4263      0.00000
      6       3.4953      0.00000
      7       4.3663      0.00000
      8       4.7567      0.00000

 k-point     7 :      -0.3750    0.3750    0.0000
  band No.  band energies     occupation 
      1     -18.0179      2.00000
      2     -15.2654      2.00000
      3      -8.2378      2.00000
      4      -5.2290      2.00000
      5      -1.5673      0.00000
      6       2.2123      0.00000
      7       6.9393      0.00000
      8       7.4100      0.00000

 k-point     8 :      -0.1250    0.3750    0.0000
  band No.  band energies     occupation 
      1     -17.6445      2.00000
      2     -13.8911      2.00000
      3      -9.5828      2.00000
      4      -6.0562      2.00000
      5       0.8963      0.00000
      6       3.2288      0.00000
      7       7.1017      0.00000
      8       8.0271      0.00000


--------------------------------------------------------------------------------------------------------


 soft charge-density along one line, spin component           1
         0         1         2         3         4         5         6         7         8         9
 total charge-density along one line
 
 pseudopotential strength for first ion, spin component:           1
 10.253  13.635  -0.002   0.000   0.000   0.009  -0.000  -0.003
 13.635  18.133  -0.003   0.000   0.001   0.012  -0.000  -0.004
 -0.002  -0.003  -4.382   0.000  -0.001   8.576  -0.000   0.003
  0.000   0.000   0.000  -4.373  -0.000  -0.000   8.561   0.000
  0.000   0.001  -0.001  -0.000  -4.387   0.003   0.000   8.581
  0.009   0.012   8.576  -0.000   0.003 -18.925   0.000  -0.008
 -0.000  -0.000  -0.000   8.561   0.000   0.000 -18.897  -0.000
 -0.003  -0.004   0.003   0.000   8.581  -0.008  -0.000 -18.924
 total augmentation occupancy for first ion, spin component:           1
  7.112  -3.068  -0.550   0.000   0.421  -0.077   0.000   0.065
 -3.068   1.465   0.359  -0.000  -0.246   0.038   0.000  -0.034
 -0.550   0.359   1.301   0.000  -0.026   0.101  -0.000   0.013
  0.000  -0.000   0.000   1.193   0.000   0.000   0.065   0.000
  0.421  -0.246  -0.026   0.000   1.929   0.013   0.000   0.181
 -0.077   0.038   0.101   0.000   0.013   0.010   0.000   0.002
  0.000   0.000  -0.000   0.065   0.000   0.000   0.004   0.000
  0.065  -0.034   0.013   0.000   0.181   0.002   0.000   0.019


------------------------ aborting loop because EDIFF is reached ----------------------------------------


    CHARGE:  cpu time    0.0181: real time    0.0181
    FORLOC:  cpu time    0.0028: real time    0.0028
    FORNL :  cpu time    0.0074: real time    0.0074
    STRESS:  cpu time    0.0867: real time    0.0867
    FORCOR:  cpu time    0.0948: real time    0.0948
    FORHAR:  cpu time    0.0260: real time    0.0260
    MIXING:  cpu time    0.0026: real time    0.0026
    OFIELD:  cpu time    0.0000: real time    0.0000

 ---------------------------------------------------------------------------------------------

         DFTD3 V3.0 Rev 1        
 Edisp (eV)   -0.16164

 E6    (eV) :    -0.1110
 E8    (eV) :    -0.0507
 % E8        : 31.34
    FORVDW:  cpu time    0.0030: real time    0.0030

  FORCE on cell =-STRESS in cart. coord.  units (eV):
  Direction    XX          YY          ZZ          XY          YZ          ZX
  --------------------------------------------------------------------------------------
  Alpha Z     3.00596     3.00596     3.00596
  Ewald    1541.29290  1460.95187 -1765.74520    11.92852     0.00000     0.00000
  Hartree  1476.82674  1465.72925 -1460.65736     2.09579    -0.00000    -0.00000
  E(xc)     -29.02112   -29.22296   -30.30849     0.11460    -0.00000     0.00000
  Local   -3097.73156 -3016.18985  3122.98217   -12.94918    -0.00000     0.00000
  n-local    -4.62190    -4.23461    -4.66773     1.16177    -0.00000    -0.00000
  augment    -0.66808    -0.62261    -0.57368    -0.00491    -0.00000     0.00000
  Kinetic   111.81335   122.85059   135.92999   -10.51209     0.00000     0.00000
  Fock        0.00000     0.00000     0.00000     0.00000     0.00000     0.00000
  vdW         0.06935     0.41866    -0.00041    -0.11104     0.00000    -0.00000
  -------------------------------------------------------------------------------------
  Total       0.96563     2.68629    -0.03474    -8.27655     0.00000     0.00000
  in kB      14.15326    39.37284    -0.50922  -121.30907     0.00000     0.00000
  external pressure =       17.67 kB  Pullay stress =        0.00 kB


 VOLUME and BASIS-vectors are now :
 -----------------------------------------------------------------------------
  energy-cutoff  :      600.00
  volume of cell :      109.31
      direct lattice vectors                 reciprocal lattice vectors
     2.466000000  0.445968677  0.000000000     0.461403387 -0.309036846  0.000000000
     1.689067040  2.521839268  0.000000000    -0.081595786  0.451186865  0.000000000
     0.000000000  0.000000000 20.000000000     0.000000000  0.000000000  0.050000000

  length of vectors
     2.506001608  3.035229935 20.000000000     0.555334906  0.458505681  0.050000000


 FORCES acting on ions
    electron-ion (+dipol)            ewald-force                    non-local-force                 convergence-correction
 -----------------------------------------------------------------------------------------------
   0.327E+02 -.278E+02 0.886E-08   -.338E+02 0.307E+02 -.851E-20   0.113E+01 -.278E+01 0.000E+00   -.969E-03 -.592E-03 0.338E-12
   -.327E+02 0.278E+02 -.886E-08   0.338E+02 -.307E+02 0.946E-20   -.113E+01 0.278E+01 -.248E-23   0.969E-03 0.592E-03 0.358E-12
 -----------------------------------------------------------------------------------------------
   0.332E-13 -.172E-12 -.146E-11   -.142E-13 0.711E-14 0.945E-21   0.000E+00 -.444E-15 -.248E-23   0.627E-15 -.882E-14 0.696E-12
 
 
 POSITION                                       TOTAL-FORCE (eV/Angst)
 -----------------------------------------------------------------------------------
      1.83073      0.62870     10.00000         0.001673     -0.000940     -0.000000
      2.32434      2.33910     10.00000        -0.001673      0.000940      0.000000
 -----------------------------------------------------------------------------------
    total drift:                                0.000000     -0.000000     -0.000000


--------------------------------------------------------------------------------------------------------



  FREE ENERGIE OF THE ION-ELECTRON SYSTEM (eV)
  ---------------------------------------------------
  free  energy   TOTEN  =       -15.22750709 eV

  energy  without entropy=      -15.22750709  energy(sigma->0) =      -15.22750709
 
 d Force = 0.4526795E-05[-0.411E-07, 0.909E-05]  d Energy = 0.4354465E-05 0.172E-06
 d Force = 0.9684384E-02[ 0.964E-02, 0.973E-02]  d Ewald  = 0.9684376E-02 0.749E-08


--------------------------------------------------------------------------------------------------------


    POTLOK:  cpu time    0.0838: real time    0.0838


--------------------------------------------------------------------------------------------------------




--------------------------------------------------------------------------------------------------------


  
 reached required accuracy - stopping structural energy minimisation
     LOOP+:  cpu time    1.1233: real time    1.1233
    4ORBIT:  cpu time    0.0000: real time    0.0000

 total amount of memory used by VASP MPI-rank0    62458. kBytes
=======================================================================

   base      :      30000. kBytes
   nonl-proj :       2006. kBytes
   fftplans  :      10664. kBytes
   grid      :      17886. kBytes
   one-center:          6. kBytes
   wavefun   :       1896. kBytes
 
  
  
 General timing and accounting informations for this job:
 ========================================================
  
                  Total CPU time used (sec):       48.250
                            User time (sec):       46.795
                          System time (sec):        1.454
                         Elapsed time (sec):       48.635
  
                   Maximum memory used (kb):      170656.
                   Average memory used (kb):          N/A
  
                          Minor page faults:       585843
                          Major page faults:            4
                 Voluntary context switches:          568
