   2   2   0   0
  0.5266436E+02  0.2466000E-09  0.2466000E-09  0.2000000E-08  0.1000000E-15
  1.000000000000000E-004
  CAR 
 unknown system                          
     11.11683977    -23.44517374  301     -3.28039898      1.00000000
    -23.445  0.0000E+00  0.0000E+00
    -23.330  0.0000E+00  0.0000E+00
    -23.215  0.0000E+00  0.0000E+00
    -23.100  0.0000E+00  0.0000E+00
    -22.984  0.0000E+00  0.0000E+00
    -22.869  0.0000E+00  0.0000E+00
    -22.754  0.0000E+00  0.0000E+00
    -22.639  0.0000E+00  0.0000E+00
    -22.524  0.0000E+00  0.0000E+00
    -22.408  0.1530E-15  0.1762E-16
    -22.293  0.1132E-10  0.1304E-11
    -22.178  0.6307E-07  0.7268E-08
    -22.063  0.2769E-04  0.3198E-05
    -21.947  0.1057E-02  0.1249E-03
    -21.832  0.4147E-02  0.6027E-03
    -21.717  0.1907E-02  0.8224E-03
    -21.602  0.9470E-04  0.8333E-03
    -21.487  0.4294E-06  0.8333E-03
    -21.371  0.4377E-05  0.8338E-03
    -21.256  0.3865E-03  0.8784E-03
    -21.141  0.3290E-02  0.1257E-02
    -21.026  0.3196E-02  0.1626E-02
    -20.911  0.3529E-03  0.1666E-02
    -20.795  0.3740E-05  0.1667E-02
    -20.680  0.3291E-08  0.1667E-02
    -20.565  0.2234E-12  0.1667E-02
    -20.450  0.1606E-17  0.1667E-02
    -20.335  0.0000E+00  0.1667E-02
    -20.219  0.1868E-14  0.1667E-02
    -20.104  0.9447E-10  0.1667E-02
    -19.989  0.3610E-06  0.1667E-02
    -19.874  0.1098E-03  0.1679E-02
    -19.759  0.2965E-02  0.2021E-02
    -19.643  0.8458E-02  0.2995E-02
    -19.528  0.2833E-02  0.3322E-02
    -19.413  0.9989E-04  0.3333E-02
    -19.298  0.3810E-06  0.3333E-02
    -19.183  0.2953E-04  0.3337E-02
    -19.067  0.1092E-02  0.3463E-02
    -18.952  0.4162E-02  0.3942E-02
    -18.837  0.1860E-02  0.4156E-02
    -18.722  0.8954E-04  0.4167E-02
    -18.606  0.3891E-06  0.4167E-02
    -18.491  0.1358E-09  0.4167E-02
    -18.376  0.3596E-14  0.4167E-02
    -18.261  0.0000E+00  0.4167E-02
    -18.146  0.6162E-14  0.4167E-02
    -18.030  0.2407E-09  0.4167E-02
    -17.915  0.7130E-06  0.4167E-02
    -17.800  0.1695E-03  0.4186E-02
    -17.685  0.3628E-02  0.4604E-02
    -17.570  0.8351E-02  0.5566E-02
    -17.454  0.2254E-02  0.5826E-02
    -17.339  0.6288E-04  0.5833E-02
    -17.224  0.1530E-06  0.5833E-02
    -17.109  0.2939E-10  0.5833E-02
    -16.994  0.4240E-15  0.5833E-02
    -16.878  0.0000E+00  0.5833E-02
    -16.763  0.0000E+00  0.5833E-02
    -16.648  0.8031E-18  0.5833E-02
    -16.533  0.1484E-12  0.5833E-02
    -16.418  0.2409E-08  0.5833E-02
    -16.302  0.3009E-05  0.5834E-02
    -16.187  0.3110E-03  0.5870E-02
    -16.072  0.3063E-02  0.6222E-02
    -15.957  0.3415E-02  0.6616E-02
    -15.842  0.4361E-03  0.6666E-02
    -15.726  0.5407E-05  0.6667E-02
    -15.611  0.5612E-08  0.6667E-02
    -15.496  0.3171E-07  0.6667E-02
    -15.381  0.1754E-04  0.6669E-02
    -15.265  0.8332E-03  0.6765E-02
    -15.150  0.4002E-02  0.7226E-02
    -15.035  0.2243E-02  0.7484E-02
    -14.920  0.2260E-03  0.7510E-02
    -14.805  0.2669E-02  0.7818E-02
    -14.689  0.8446E-02  0.8791E-02
    -14.574  0.3140E-02  0.9152E-02
    -14.459  0.1239E-03  0.9167E-02
    -14.344  0.4355E-06  0.9167E-02
    -14.229  0.1222E-09  0.9167E-02
    -14.113  0.2592E-14  0.9167E-02
    -13.998  0.9637E-17  0.9167E-02
    -13.883  0.1262E-11  0.9167E-02
    -13.768  0.1223E-07  0.9167E-02
    -13.653  0.9227E-05  0.9168E-02
    -13.537  0.5885E-03  0.9236E-02
    -13.422  0.3710E-02  0.9663E-02
    -13.307  0.2704E-02  0.9974E-02
    -13.192  0.2202E-03  0.1000E-01
    -13.077  0.1680E-05  0.1000E-01
    -12.961  0.1050E-08  0.1000E-01
    -12.846  0.2373E-09  0.1000E-01
    -12.731  0.5819E-06  0.1000E-01
    -12.616  0.1152E-03  0.1001E-01
    -12.501  0.2078E-02  0.1025E-01
    -12.385  0.4081E-02  0.1072E-01
    -12.270  0.9370E-03  0.1083E-01
    -12.155  0.2194E-04  0.1083E-01
    -12.040  0.3611E-06  0.1083E-01
    -11.925  0.1010E-03  0.1085E-01
    -11.809  0.2848E-02  0.1117E-01
    -11.694  0.8458E-02  0.1215E-01
    -11.579  0.2950E-02  0.1249E-01
    -11.464  0.1087E-03  0.1250E-01
    -11.348  0.3550E-06  0.1250E-01
    -11.233  0.9233E-10  0.1250E-01
    -11.118  0.1815E-14  0.1250E-01
    -11.003  0.0000E+00  0.1250E-01
    -10.888  0.0000E+00  0.1250E-01
    -10.772  0.0000E+00  0.1250E-01
    -10.657  0.1811E-13  0.1250E-01
    -10.542  0.5576E-09  0.1250E-01
    -10.427  0.1307E-05  0.1250E-01
    -10.312  0.2476E-03  0.1253E-01
    -10.196  0.4286E-02  0.1302E-01
    -10.081  0.8157E-02  0.1396E-01
     -9.966  0.3272E-02  0.1434E-01
     -9.851  0.4269E-02  0.1483E-01
     -9.736  0.1416E-02  0.1499E-01
     -9.620  0.6127E-04  0.1500E-01
     -9.505  0.8966E-03  0.1510E-01
     -9.390  0.6886E-02  0.1590E-01
     -9.275  0.6068E-02  0.1660E-01
     -9.160  0.1021E-02  0.1671E-01
     -9.044  0.4271E-02  0.1721E-01
     -8.929  0.7440E-02  0.1806E-01
     -8.814  0.4888E-02  0.1863E-01
     -8.699  0.3976E-02  0.1908E-01
     -8.584  0.6965E-03  0.1917E-01
     -8.468  0.1253E-04  0.1917E-01
     -8.353  0.1922E-07  0.1917E-01
     -8.238  0.1914E-08  0.1917E-01
     -8.123  0.2560E-05  0.1917E-01
     -8.007  0.2828E-03  0.1920E-01
     -7.892  0.2963E-02  0.1954E-01
     -7.777  0.3503E-02  0.1994E-01
     -7.662  0.4766E-03  0.2000E-01
     -7.547  0.2159E-03  0.2002E-01
     -7.431  0.3989E-02  0.2048E-01
     -7.316  0.8345E-02  0.2145E-01
     -7.201  0.4058E-02  0.2191E-01
     -7.086  0.4133E-02  0.2239E-01
     -6.971  0.9427E-03  0.2250E-01
     -6.855  0.3692E-04  0.2250E-01
     -6.740  0.7602E-03  0.2259E-01
     -6.625  0.4095E-02  0.2306E-01
     -6.510  0.4776E-02  0.2361E-01
     -6.395  0.4067E-02  0.2408E-01
     -6.279  0.7398E-03  0.2417E-01
     -6.164  0.1401E-04  0.2417E-01
     -6.049  0.2267E-07  0.2417E-01
     -5.934  0.2867E-11  0.2417E-01
     -5.819  0.4207E-14  0.2417E-01
     -5.703  0.1777E-09  0.2417E-01
     -5.588  0.5721E-06  0.2417E-01
     -5.473  0.1474E-03  0.2418E-01
     -5.358  0.3404E-02  0.2458E-01
     -5.243  0.8405E-02  0.2554E-01
     -5.127  0.2435E-02  0.2582E-01
     -5.012  0.7337E-04  0.2583E-01
     -4.897  0.1937E-06  0.2583E-01
     -4.782  0.4045E-10  0.2583E-01
     -4.666  0.6360E-15  0.2583E-01
     -4.551  0.0000E+00  0.2583E-01
     -4.436  0.0000E+00  0.2583E-01
     -4.321  0.3132E-16  0.2583E-01
     -4.206  0.3216E-11  0.2583E-01
     -4.090  0.2471E-07  0.2583E-01
     -3.975  0.1484E-04  0.2584E-01
     -3.860  0.7622E-03  0.2592E-01
     -3.745  0.3934E-02  0.2638E-01
     -3.630  0.2364E-02  0.2665E-01
     -3.514  0.1566E-03  0.2667E-01
     -3.399  0.9572E-06  0.2667E-01
     -3.284  0.4755E-09  0.2667E-01
     -3.169  0.1802E-13  0.2667E-01
     -3.054  0.0000E+00  0.2667E-01
     -2.938  0.0000E+00  0.2667E-01
     -2.823  0.0000E+00  0.2667E-01
     -2.708  0.0000E+00  0.2667E-01
     -2.593  0.0000E+00  0.2667E-01
     -2.478  0.0000E+00  0.2667E-01
     -2.362  0.1365E-16  0.2667E-01
     -2.247  0.1670E-11  0.2667E-01
     -2.132  0.1511E-07  0.2667E-01
     -2.017  0.1065E-04  0.2667E-01
     -1.902  0.6368E-03  0.2674E-01
     -1.786  0.3782E-02  0.2718E-01
     -1.671  0.2603E-02  0.2748E-01
     -1.556  0.1994E-03  0.2750E-01
     -1.441  0.1424E-05  0.2750E-01
     -1.325  0.8317E-09  0.2750E-01
     -1.210  0.3716E-13  0.2750E-01
     -1.095  0.4818E-17  0.2750E-01
     -0.980  0.8360E-12  0.2750E-01
     -0.865  0.1061E-07  0.2750E-01
     -0.749  0.1041E-04  0.2750E-01
     -0.634  0.8534E-03  0.2760E-01
     -0.519  0.6785E-02  0.2838E-01
     -0.404  0.6175E-02  0.2909E-01
     -0.289  0.6367E-03  0.2917E-01
     -0.173  0.6264E-05  0.2917E-01
     -0.058  0.5103E-08  0.2917E-01
      0.057  0.3200E-12  0.2917E-01
      0.172  0.1606E-17  0.2917E-01
      0.287  0.0000E+00  0.2917E-01
      0.403  0.0000E+00  0.2917E-01
      0.518  0.2313E-14  0.2917E-01
      0.633  0.1047E-09  0.2917E-01
      0.748  0.3685E-06  0.2917E-01
      0.863  0.1070E-03  0.2918E-01
      0.979  0.2864E-02  0.2951E-01
      1.094  0.8392E-02  0.3048E-01
      1.209  0.2986E-02  0.3082E-01
      1.324  0.1166E-03  0.3083E-01
      1.439  0.4213E-06  0.3083E-01
      1.555  0.1490E-07  0.3083E-01
      1.670  0.1049E-04  0.3083E-01
      1.785  0.6323E-03  0.3091E-01
      1.900  0.3928E-02  0.3136E-01
      2.016  0.5669E-02  0.3201E-01
      2.131  0.8199E-02  0.3296E-01
      2.246  0.3171E-02  0.3332E-01
      2.361  0.2523E-02  0.3361E-01
      2.476  0.8388E-02  0.3458E-01
      2.592  0.3490E-02  0.3498E-01
      2.707  0.1920E-03  0.3500E-01
      2.822  0.1213E-02  0.3514E-01
      2.937  0.4321E-02  0.3564E-01
      3.052  0.4641E-02  0.3618E-01
      3.168  0.8367E-02  0.3714E-01
      3.283  0.2997E-02  0.3749E-01
      3.398  0.1254E-03  0.3750E-01
      3.513  0.5074E-06  0.3750E-01
      3.628  0.2257E-09  0.3750E-01
      3.744  0.2328E-06  0.3750E-01
      3.859  0.8401E-04  0.3751E-01
      3.974  0.2785E-02  0.3783E-01
      4.089  0.1106E-01  0.3910E-01
      4.204  0.7001E-02  0.3991E-01
      4.320  0.7574E-03  0.4000E-01
      4.435  0.1084E-04  0.4000E-01
      4.550  0.2704E-04  0.4000E-01
      4.665  0.1052E-02  0.4012E-01
      4.780  0.4894E-02  0.4069E-01
      4.896  0.8480E-02  0.4167E-01
      5.011  0.7735E-02  0.4256E-01
      5.126  0.8073E-02  0.4349E-01
      5.241  0.1035E-01  0.4468E-01
      5.357  0.2709E-02  0.4499E-01
      5.472  0.8514E-04  0.4500E-01
      5.587  0.2509E-06  0.4500E-01
      5.702  0.7597E-05  0.4500E-01
      5.817  0.5283E-03  0.4506E-01
      5.933  0.3612E-02  0.4548E-01
      6.048  0.3420E-02  0.4587E-01
      6.163  0.6239E-02  0.4659E-01
      6.278  0.6954E-02  0.4739E-01
      6.393  0.9263E-03  0.4750E-01
      6.509  0.1202E-04  0.4750E-01
      6.624  0.1366E-07  0.4750E-01
      6.739  0.1343E-05  0.4750E-01
      6.854  0.2518E-03  0.4753E-01
      6.969  0.4317E-02  0.4803E-01
      7.085  0.8087E-02  0.4896E-01
      7.200  0.1769E-02  0.4916E-01
      7.315  0.3931E-04  0.4917E-01
      7.430  0.7673E-07  0.4917E-01
      7.545  0.2676E-05  0.4917E-01
      7.661  0.3840E-03  0.4921E-01
      7.776  0.5130E-02  0.4980E-01
      7.891  0.7616E-02  0.5068E-01
      8.006  0.1406E-02  0.5084E-01
      8.121  0.1930E-02  0.5106E-01
      8.237  0.4147E-02  0.5154E-01
      8.352  0.1056E-02  0.5166E-01
      8.467  0.2768E-04  0.5167E-01
      8.582  0.6303E-07  0.5167E-01
      8.697  0.1131E-10  0.5167E-01
      8.813  0.1779E-14  0.5167E-01
      8.928  0.7300E-10  0.5167E-01
      9.043  0.2480E-06  0.5167E-01
      9.158  0.6731E-04  0.5167E-01
      9.274  0.1632E-02  0.5186E-01
      9.389  0.4310E-02  0.5236E-01
      9.504  0.3185E-02  0.5273E-01
      9.619  0.4187E-02  0.5321E-01
      9.734  0.1057E-02  0.5333E-01
      9.850  0.2769E-04  0.5333E-01
      9.965  0.6307E-07  0.5333E-01
     10.080  0.1132E-10  0.5333E-01
     10.195  0.1526E-15  0.5333E-01
     10.310  0.0000E+00  0.5333E-01
     10.426  0.0000E+00  0.5333E-01
     10.541  0.0000E+00  0.5333E-01
     10.656  0.0000E+00  0.5333E-01
     10.771  0.0000E+00  0.5333E-01
     10.886  0.0000E+00  0.5333E-01
     11.002  0.0000E+00  0.5333E-01
     11.117  0.0000E+00  0.5333E-01
