    2    2  300    1
  0.5266436E+02  0.2466000E-09  0.2466000E-09  0.2000000E-08  0.1000000E-15
  1.000000000000000E-004
  CAR 
 unknown system                          
      8      6      8
 
  0.1250000E+00  0.1250000E+00  0.0000000E+00  0.1250000E+00
    1      -21.874173   1.000000
    2       -9.909610   1.000000
    3       -7.164347   1.000000
    4       -6.483577   1.000000
    5        1.047268   0.000000
    6        1.880444   0.000000
    7        2.100063   0.000000
    8        3.094789   0.000000
 
  0.3750000E+00  0.1250000E+00  0.0000000E+00  0.2500000E+00
    1      -19.702170   1.000000
    2      -11.750755   1.000000
    3       -9.396828   1.000000
    4       -7.392356   1.000000
    5        2.429097   0.000000
    6        4.037640   0.000000
    7        4.895007   0.000000
    8        5.178335   0.000000
 
 -0.3750000E+00  0.1250000E+00  0.0000000E+00  0.2500000E+00
    1      -17.639904   1.000000
    2      -14.742735   1.000000
    3      -10.162036   1.000000
    4       -5.309033   1.000000
    5       -0.524133   0.000000
    6        6.171019   0.000000
    7        7.003276   0.000000
    8        7.797195   0.000000
 
 -0.1250000E+00  0.1250000E+00  0.0000000E+00  0.1250000E+00
    1      -21.142619   1.000000
    2       -9.046662   1.000000
    3       -8.966230   1.000000
    4       -7.883229   1.000000
    5        2.047028   0.000000
    6        2.888710   0.000000
    7        3.126360   0.000000
    8        4.108698   0.000000
 
  0.3750000E+00  0.3750000E+00  0.0000000E+00  0.1250000E+00
    1      -18.995544   1.000000
    2      -13.439283   1.000000
    3       -8.790170   1.000000
    4       -6.652329   1.000000
    5        1.027479   0.000000
    6        4.739162   0.000000
    7        5.083907   0.000000
    8        5.919580   0.000000
 
 -0.3750000E+00  0.3750000E+00  0.0000000E+00  0.1250000E+00
    1      -16.066062   1.000000
    2      -15.181565   1.000000
    3      -12.464120   1.000000
    4       -3.772330   1.000000
    5       -1.806501   0.000000
    6        8.163348   0.000000
    7        9.324627   0.000000
    8        9.545839   0.000000
