   2   2   0   0
  0.4666589E+02  0.2492582E-09  0.2700129E-09  0.2000000E-08  0.5000000E-15
  1.000000000000000E-004
  CAR 
 unknown system                          
     12.89288341    -26.14107597  301     -1.86410147      1.00000000
    -26.141  0.0000E+00  0.0000E+00
    -26.011  0.0000E+00  0.0000E+00
    -25.881  0.0000E+00  0.0000E+00
    -25.751  0.0000E+00  0.0000E+00
    -25.621  0.0000E+00  0.0000E+00
    -25.491  0.0000E+00  0.0000E+00
    -25.360  0.0000E+00  0.0000E+00
    -25.230  0.0000E+00  0.0000E+00
    -25.100  0.0000E+00  0.0000E+00
    -24.970  0.0000E+00  0.0000E+00
    -24.840  0.7089E-13  0.9223E-14
    -24.710  0.3931E-08  0.5115E-09
    -24.580  0.8334E-05  0.1085E-05
    -24.450  0.7654E-03  0.1007E-03
    -24.319  0.4019E-02  0.6236E-03
    -24.189  0.1573E-02  0.8283E-03
    -24.059  0.3871E-04  0.8333E-03
    -23.929  0.4374E-07  0.8333E-03
    -23.799  0.1935E-11  0.8333E-03
    -23.669  0.2844E-17  0.8333E-03
    -23.539  0.0000E+00  0.8333E-03
    -23.409  0.3555E-18  0.8333E-03
    -23.279  0.3799E-12  0.8333E-03
    -23.148  0.1346E-07  0.8333E-03
    -23.018  0.1844E-04  0.8357E-03
    -22.888  0.1125E-02  0.9821E-03
    -22.758  0.4115E-02  0.1518E-02
    -22.628  0.1128E-02  0.1664E-02
    -22.498  0.1953E-04  0.1667E-02
    -22.368  0.2471E-03  0.1699E-02
    -22.238  0.3163E-02  0.2110E-02
    -22.108  0.3960E-02  0.2626E-02
    -21.977  0.4292E-02  0.3184E-02
    -21.847  0.1128E-02  0.3331E-02
    -21.717  0.1968E-04  0.3333E-02
    -21.587  0.2671E-03  0.3368E-02
    -21.457  0.3217E-02  0.3787E-02
    -21.327  0.2756E-02  0.4145E-02
    -21.197  0.1630E-03  0.4167E-02
    -21.067  0.4804E-06  0.4167E-02
    -20.937  0.5735E-10  0.4167E-02
    -20.806  0.2546E-15  0.4167E-02
    -20.676  0.0000E+00  0.4167E-02
    -20.546  0.0000E+00  0.4167E-02
    -20.416  0.0000E+00  0.4167E-02
    -20.286  0.0000E+00  0.4167E-02
    -20.156  0.0000E+00  0.4167E-02
    -20.026  0.3526E-13  0.4167E-02
    -19.896  0.2345E-08  0.4167E-02
    -19.766  0.5939E-05  0.4167E-02
    -19.635  0.6449E-03  0.4251E-02
    -19.505  0.3928E-02  0.4762E-02
    -19.375  0.1775E-02  0.4993E-02
    -19.245  0.5133E-04  0.5000E-02
    -19.115  0.6912E-07  0.5000E-02
    -18.985  0.3663E-11  0.5000E-02
    -18.855  0.7111E-17  0.5000E-02
    -18.725  0.0000E+00  0.5000E-02
    -18.595  0.0000E+00  0.5000E-02
    -18.464  0.0000E+00  0.5000E-02
    -18.334  0.0000E+00  0.5000E-02
    -18.204  0.0000E+00  0.5000E-02
    -18.074  0.1943E-13  0.5000E-02
    -17.944  0.1506E-08  0.5000E-02
    -17.814  0.4431E-05  0.5001E-02
    -17.684  0.5563E-03  0.5073E-02
    -17.554  0.4188E-02  0.5618E-02
    -17.423  0.6134E-02  0.6416E-02
    -17.293  0.6935E-02  0.7318E-02
    -17.163  0.5374E-02  0.8018E-02
    -17.033  0.2330E-02  0.8321E-02
    -16.903  0.9689E-04  0.8333E-02
    -16.773  0.1976E-06  0.8333E-02
    -16.643  0.1610E-10  0.8333E-02
    -16.513  0.1083E-12  0.8333E-02
    -16.383  0.5370E-08  0.8333E-02
    -16.252  0.1021E-04  0.8335E-02
    -16.122  0.8466E-03  0.8445E-02
    -15.992  0.4060E-02  0.8973E-02
    -15.862  0.1455E-02  0.9162E-02
    -15.732  0.3240E-04  0.9167E-02
    -15.602  0.3287E-07  0.9167E-02
    -15.472  0.1301E-11  0.9167E-02
    -15.342  0.1422E-17  0.9167E-02
    -15.212  0.0000E+00  0.9167E-02
    -15.081  0.0000E+00  0.9167E-02
    -14.951  0.3162E-13  0.9167E-02
    -14.821  0.2164E-08  0.9167E-02
    -14.691  0.5631E-05  0.9167E-02
    -14.561  0.6275E-03  0.9249E-02
    -14.431  0.3911E-02  0.9758E-02
    -14.301  0.1827E-02  0.9996E-02
    -14.171  0.1222E-02  0.1015E-01
    -14.041  0.4114E-02  0.1069E-01
    -13.910  0.1085E-02  0.1083E-01
    -13.780  0.1707E-04  0.1083E-01
    -13.650  0.2803E-06  0.1083E-01
    -13.520  0.1161E-03  0.1085E-01
    -13.390  0.2446E-02  0.1117E-01
    -13.260  0.3482E-02  0.1162E-01
    -13.130  0.3675E-03  0.1167E-01
    -13.000  0.8040E-03  0.1177E-01
    -12.870  0.4060E-02  0.1230E-01
    -12.739  0.2708E-02  0.1265E-01
    -12.609  0.4148E-02  0.1319E-01
    -12.479  0.1065E-02  0.1333E-01
    -12.349  0.1643E-04  0.1333E-01
    -12.219  0.1123E-07  0.1333E-01
    -12.089  0.2963E-12  0.1333E-01
    -11.959  0.1067E-17  0.1333E-01
    -11.829  0.9368E-12  0.1333E-01
    -11.699  0.2593E-07  0.1333E-01
    -11.568  0.2792E-04  0.1334E-01
    -11.438  0.1362E-02  0.1351E-01
    -11.308  0.4087E-02  0.1405E-01
    -11.178  0.1229E-02  0.1421E-01
    -11.048  0.3826E-02  0.1470E-01
    -10.918  0.6309E-02  0.1552E-01
    -10.788  0.2290E-02  0.1582E-01
    -10.658  0.8299E-04  0.1583E-01
    -10.527  0.1515E-06  0.1583E-01
    -10.397  0.1105E-10  0.1583E-01
    -10.267  0.2986E-16  0.1583E-01
    -10.137  0.3652E-14  0.1583E-01
    -10.007  0.4314E-09  0.1583E-01
     -9.877  0.1917E-05  0.1583E-01
     -9.747  0.3547E-03  0.1588E-01
     -9.617  0.3473E-02  0.1633E-01
     -9.487  0.2457E-02  0.1665E-01
     -9.356  0.1176E-03  0.1667E-01
     -9.226  0.2742E-06  0.1667E-01
     -9.096  0.3235E-09  0.1667E-01
     -8.966  0.1493E-05  0.1667E-01
     -8.836  0.3155E-03  0.1671E-01
     -8.706  0.4229E-02  0.1726E-01
     -8.576  0.1095E-01  0.1868E-01
     -8.446  0.8959E-02  0.1985E-01
     -8.316  0.1157E-02  0.2000E-01
     -8.185  0.1248E-04  0.2000E-01
     -8.055  0.5800E-06  0.2000E-01
     -7.925  0.1805E-03  0.2002E-01
     -7.795  0.2851E-02  0.2039E-01
     -7.665  0.3129E-02  0.2080E-01
     -7.535  0.2430E-03  0.2083E-01
     -7.405  0.1369E-05  0.2083E-01
     -7.275  0.1470E-03  0.2085E-01
     -7.145  0.2660E-02  0.2120E-01
     -7.014  0.3303E-02  0.2163E-01
     -6.884  0.2933E-03  0.2167E-01
     -6.754  0.1966E-05  0.2167E-01
     -6.624  0.1871E-03  0.2169E-01
     -6.494  0.2884E-02  0.2207E-01
     -6.364  0.3097E-02  0.2247E-01
     -6.234  0.2348E-03  0.2250E-01
     -6.104  0.9105E-06  0.2250E-01
     -5.974  0.1447E-09  0.2250E-01
     -5.843  0.8604E-15  0.2250E-01
     -5.713  0.0000E+00  0.2250E-01
     -5.583  0.5549E-13  0.2250E-01
     -5.453  0.3281E-08  0.2250E-01
     -5.323  0.7404E-05  0.2250E-01
     -5.193  0.7213E-03  0.2259E-01
     -5.063  0.4003E-02  0.2312E-01
     -4.933  0.2598E-02  0.2345E-01
     -4.803  0.4138E-02  0.2399E-01
     -4.672  0.1315E-02  0.2416E-01
     -4.542  0.2587E-04  0.2417E-01
     -4.412  0.2296E-07  0.2417E-01
     -4.282  0.7922E-12  0.2417E-01
     -4.152  0.2968E-10  0.2417E-01
     -4.022  0.3035E-06  0.2417E-01
     -3.892  0.1248E-03  0.2418E-01
     -3.762  0.2511E-02  0.2451E-01
     -3.631  0.3429E-02  0.2496E-01
     -3.501  0.3375E-03  0.2500E-01
     -3.371  0.1750E-05  0.2500E-01
     -3.241  0.3773E-09  0.2500E-01
     -3.111  0.3244E-11  0.2500E-01
     -2.981  0.6332E-07  0.2500E-01
     -2.851  0.4864E-04  0.2501E-01
     -2.721  0.1735E-02  0.2523E-01
     -2.591  0.3948E-02  0.2575E-01
     -2.460  0.6670E-03  0.2583E-01
     -2.330  0.7985E-05  0.2583E-01
     -2.200  0.3257E-03  0.2588E-01
     -2.070  0.3397E-02  0.2632E-01
     -1.940  0.2550E-02  0.2665E-01
     -1.810  0.1897E-03  0.2667E-01
     -1.680  0.1887E-02  0.2692E-01
     -1.550  0.3867E-02  0.2742E-01
     -1.420  0.5860E-03  0.2750E-01
     -1.289  0.4985E-05  0.2750E-01
     -1.159  0.4455E-04  0.2751E-01
     -1.029  0.1672E-02  0.2772E-01
     -0.899  0.3977E-02  0.2824E-01
     -0.769  0.7041E-03  0.2833E-01
     -0.639  0.7058E-05  0.2833E-01
     -0.509  0.3050E-08  0.2833E-01
     -0.379  0.5027E-13  0.2833E-01
     -0.249  0.1864E-12  0.2833E-01
     -0.118  0.8002E-08  0.2833E-01
      0.012  0.1321E-04  0.2834E-01
      0.142  0.9600E-03  0.2846E-01
      0.272  0.4100E-02  0.2899E-01
      0.402  0.1747E-02  0.2922E-01
      0.532  0.3766E-02  0.2971E-01
      0.662  0.4448E-02  0.3029E-01
      0.792  0.3760E-02  0.3078E-01
      0.922  0.1606E-02  0.3099E-01
      1.053  0.4117E-02  0.3152E-01
      1.183  0.1086E-02  0.3166E-01
      1.313  0.2318E-04  0.3167E-01
      1.443  0.6527E-03  0.3175E-01
      1.573  0.3952E-02  0.3227E-01
      1.703  0.2864E-02  0.3264E-01
      1.833  0.4506E-02  0.3323E-01
      1.963  0.4590E-02  0.3382E-01
      2.093  0.2612E-02  0.3416E-01
      2.224  0.3501E-02  0.3462E-01
      2.354  0.7930E-02  0.3565E-01
      2.484  0.1395E-02  0.3583E-01
      2.614  0.1404E-04  0.3583E-01
      2.744  0.1658E-06  0.3583E-01
      2.874  0.8741E-04  0.3584E-01
      3.004  0.2580E-02  0.3618E-01
      3.134  0.8095E-02  0.3723E-01
      3.265  0.7243E-02  0.3818E-01
      3.395  0.5099E-02  0.3884E-01
      3.525  0.2407E-02  0.3915E-01
      3.655  0.1071E-03  0.3917E-01
      3.785  0.1017E-04  0.3917E-01
      3.915  0.9147E-03  0.3929E-01
      4.045  0.7304E-02  0.4024E-01
      4.175  0.9495E-02  0.4147E-01
      4.305  0.2771E-02  0.4183E-01
      4.436  0.4118E-02  0.4237E-01
      4.566  0.9911E-03  0.4250E-01
      4.696  0.1412E-04  0.4250E-01
      4.826  0.1471E-05  0.4250E-01
      4.956  0.3239E-03  0.4254E-01
      5.086  0.4667E-02  0.4315E-01
      5.216  0.9603E-02  0.4440E-01
      5.346  0.4404E-02  0.4497E-01
      5.476  0.2650E-02  0.4532E-01
      5.607  0.8198E-02  0.4638E-01
      5.737  0.2142E-02  0.4666E-01
      5.867  0.4266E-04  0.4667E-01
      5.997  0.7749E-03  0.4677E-01
      6.127  0.4024E-02  0.4729E-01
      6.257  0.1559E-02  0.4750E-01
      6.387  0.3790E-04  0.4750E-01
      6.517  0.6892E-05  0.4750E-01
      6.647  0.6935E-03  0.4759E-01
      6.778  0.3969E-02  0.4811E-01
      6.908  0.1689E-02  0.4833E-01
      7.038  0.4567E-04  0.4833E-01
      7.168  0.5716E-07  0.4833E-01
      7.298  0.6413E-09  0.4833E-01
      7.428  0.2497E-05  0.4833E-01
      7.558  0.4092E-03  0.4839E-01
      7.688  0.3595E-02  0.4885E-01
      7.818  0.2299E-02  0.4915E-01
      7.949  0.9824E-04  0.4917E-01
      8.079  0.2024E-06  0.4917E-01
      8.209  0.1666E-10  0.4917E-01
      8.339  0.5120E-16  0.4917E-01
      8.469  0.0000E+00  0.4917E-01
      8.599  0.0000E+00  0.4917E-01
      8.729  0.5223E-15  0.4917E-01
      8.859  0.9915E-10  0.4917E-01
      8.989  0.7018E-06  0.4917E-01
      9.120  0.2029E-03  0.4919E-01
      9.250  0.3087E-02  0.4959E-01
      9.380  0.5560E-02  0.5032E-01
      9.510  0.3644E-02  0.5079E-01
      9.640  0.1434E-02  0.5098E-01
      9.770  0.4116E-02  0.5151E-01
      9.900  0.1150E-02  0.5166E-01
     10.030  0.3993E-04  0.5167E-01
     10.161  0.1185E-02  0.5182E-01
     10.291  0.4113E-02  0.5236E-01
     10.421  0.1070E-02  0.5250E-01
     10.551  0.1658E-04  0.5250E-01
     10.681  0.1139E-07  0.5250E-01
     10.811  0.4374E-07  0.5250E-01
     10.941  0.3871E-04  0.5251E-01
     11.071  0.1573E-02  0.5271E-01
     11.201  0.4019E-02  0.5323E-01
     11.332  0.7654E-03  0.5333E-01
     11.462  0.8334E-05  0.5333E-01
     11.592  0.3931E-08  0.5333E-01
     11.722  0.7089E-13  0.5333E-01
     11.852  0.0000E+00  0.5333E-01
     11.982  0.0000E+00  0.5333E-01
     12.112  0.0000E+00  0.5333E-01
     12.242  0.0000E+00  0.5333E-01
     12.372  0.0000E+00  0.5333E-01
     12.503  0.0000E+00  0.5333E-01
     12.633  0.0000E+00  0.5333E-01
     12.763  0.0000E+00  0.5333E-01
     12.893  0.0000E+00  0.5333E-01
