    2    2  300    1
  0.4666589E+02  0.2492582E-09  0.2700129E-09  0.2000000E-08  0.5000000E-15
  1.000000000000000E-004
  CAR 
 unknown system                          
      8      8      8
 
  0.1250000E+00  0.1250000E+00  0.0000000E+00  0.1250000E+00
    1      -24.366805   1.000000
    2      -12.677077   1.000000
    3      -11.382957   1.000000
    4        0.214485   0.000000
    5        0.985730   0.000000
    6        1.947228   0.000000
    7        2.271281   0.000000
    8        3.212743   0.000000
 
  0.3750000E+00  0.1250000E+00  0.0000000E+00  0.1250000E+00
    1      -21.464839   1.000000
    2      -14.469920   1.000000
    3       -7.790394   1.000000
    4       -7.133580   1.000000
    5        1.532406   0.000000
    6        2.262365   0.000000
    7        5.073897   0.000000
    8        6.079153   0.000000
 
 -0.3750000E+00  0.1250000E+00  0.0000000E+00  0.1250000E+00
    1      -17.186319   1.000000
    2      -14.107438   1.000000
    3      -13.372088   1.000000
    4       -3.745810   1.000000
    5       -0.985458   0.000000
    6        0.507027   0.000000
    7        9.706140   0.000000
    8       11.118613   0.000000
 
 -0.1250000E+00  0.1250000E+00  0.0000000E+00  0.1250000E+00
    1      -22.823132   1.000000
    2      -10.945296   1.000000
    3       -9.634231   1.000000
    4       -6.490376   1.000000
    5        1.769316   0.000000
    6        3.113198   0.000000
    7        3.994285   0.000000
    8        4.364315   0.000000
 
  0.1250000E+00  0.3750000E+00  0.0000000E+00  0.1250000E+00
    1      -22.042454   1.000000
    2      -12.918869   1.000000
    3       -8.614694   1.000000
    4       -8.577962   1.000000
    5        3.030936   0.000000
    6        4.091812   0.000000
    7        5.150216   0.000000
    8        5.532004   0.000000
 
  0.3750000E+00  0.3750000E+00  0.0000000E+00  0.1250000E+00
    1      -22.242942   1.000000
    2      -17.587703   1.000000
    3       -8.521009   1.000000
    4       -2.084691   0.999095
    5       -1.643512   0.000905
    6        4.089431   0.000000
    7        5.220433   0.000000
    8        5.545488   0.000000
 
 -0.3750000E+00  0.3750000E+00  0.0000000E+00  0.1250000E+00
    1      -19.545443   1.000000
    2      -17.337926   1.000000
    3       -8.718658   1.000000
    4       -5.107524   1.000000
    5       -2.679173   1.000000
    6        6.734426   0.000000
    7        9.250822   0.000000
    8        9.394835   0.000000
 
 -0.1250000E+00  0.3750000E+00  0.0000000E+00  0.1250000E+00
    1      -17.440633   1.000000
    2      -16.043960   1.000000
    3      -11.060593   1.000000
    4       -4.859674   1.000000
    5        0.687339   0.000000
    6        3.374411   0.000000
    7        7.665705   0.000000
    8       10.223052   0.000000
