       N       E                     dE             d eps       ncg     rms          rms(c)
DAV:   1     0.590285045085E+02    0.59029E+02   -0.39359E+03   144   0.820E+02
DAV:   2    -0.125930369490E+02   -0.71622E+02   -0.63213E+02   184   0.142E+02
DAV:   3    -0.166115910016E+02   -0.40186E+01   -0.40186E+01   240   0.507E+01
DAV:   4    -0.166166864260E+02   -0.50954E-02   -0.50954E-02   184   0.215E+00
DAV:   5    -0.166167080374E+02   -0.21611E-04   -0.21611E-04   224   0.120E-01    0.904E+00
DAV:   6    -0.144199929533E+02    0.21967E+01   -0.25546E+00   208   0.131E+01    0.502E+00
DAV:   7    -0.137184366446E+02    0.70156E+00   -0.25694E+00   224   0.128E+01    0.161E+00
DAV:   8    -0.136972831434E+02    0.21154E-01   -0.58037E-02   192   0.236E+00    0.298E-01
DAV:   9    -0.136959429532E+02    0.13402E-02   -0.42860E-03   224   0.595E-01    0.116E-01
DAV:  10    -0.136922726201E+02    0.36703E-02   -0.26914E-03   184   0.315E-01    0.557E-02
DAV:  11    -0.136916739908E+02    0.59863E-03   -0.60871E-04   200   0.140E-01    0.417E-02
DAV:  12    -0.136920788685E+02   -0.40488E-03   -0.60315E-04   168   0.133E-01    0.200E-02
DAV:  13    -0.136930072414E+02   -0.92837E-03   -0.12634E-04   176   0.717E-02    0.101E-02
DAV:  14    -0.136935122721E+02   -0.50503E-03   -0.80635E-05   176   0.560E-02    0.656E-03
DAV:  15    -0.136937383617E+02   -0.22609E-03   -0.40899E-05   160   0.268E-02    0.297E-03
DAV:  16    -0.136937385223E+02   -0.16053E-06   -0.37668E-07   240   0.410E-03
   1 F= -.13845280E+02 E0= -.13845280E+02  d E =-.138453E+02
       N       E                     dE             d eps       ncg     rms          rms(c)
DAV:   1    -0.124421979793E+02    0.12515E+01   -0.90820E+02   144   0.245E+02    0.965E+00
DAV:   2    -0.114417415623E+02    0.10005E+01   -0.15892E+01   160   0.411E+01    0.604E+00
DAV:   3    -0.107066408631E+02    0.73510E+00   -0.25616E+00   168   0.115E+01    0.260E+00
DAV:   4    -0.106273515157E+02    0.79289E-01   -0.18047E-01   176   0.365E+00    0.131E+00
DAV:   5    -0.106143319064E+02    0.13020E-01   -0.47093E-02   208   0.170E+00    0.379E-01
DAV:   6    -0.106145048128E+02   -0.17291E-03   -0.60190E-03   168   0.665E-01    0.176E-01
DAV:   7    -0.106145171848E+02   -0.12372E-04   -0.12463E-03   200   0.353E-01    0.630E-02
DAV:   8    -0.106145714945E+02   -0.54310E-04   -0.18664E-04   168   0.119E-01    0.292E-02
DAV:   9    -0.106147021355E+02   -0.13064E-03   -0.10105E-04   160   0.672E-02    0.211E-02
DAV:  10    -0.106147153657E+02   -0.13230E-04   -0.10803E-05   200   0.200E-02    0.163E-02
DAV:  11    -0.106147577912E+02   -0.42426E-04   -0.51497E-05   168   0.359E-02    0.517E-03
DAV:  12    -0.106147633691E+02   -0.55779E-05   -0.79453E-07   176   0.778E-03    0.278E-03
DAV:  13    -0.106147730455E+02   -0.96764E-05   -0.12537E-06   176   0.704E-03    0.122E-03
DAV:  14    -0.106147767186E+02   -0.36731E-05   -0.42051E-07   160   0.356E-03    0.953E-04
DAV:  15    -0.106147778070E+02   -0.10884E-05   -0.18450E-07   168   0.224E-03    0.689E-04
DAV:  16    -0.106147783061E+02   -0.49908E-06   -0.72795E-08   168   0.113E-03
   2 F= -.10766045E+02 E0= -.10756435E+02  d E =0.307923E+01
       N       E                     dE             d eps       ncg     rms          rms(c)
DAV:   1    -0.135761850896E+02   -0.29614E+01   -0.21167E+02   136   0.132E+02    0.404E+00
DAV:   2    -0.133453238206E+02    0.23086E+00   -0.31314E+00   184   0.175E+01    0.202E+00
DAV:   3    -0.132479117212E+02    0.97412E-01   -0.34419E-01   192   0.509E+00    0.663E-01
DAV:   4    -0.132485749960E+02   -0.66327E-03   -0.36637E-02   232   0.175E+00    0.293E-01
DAV:   5    -0.132489445956E+02   -0.36960E-03   -0.17557E-03   200   0.433E-01    0.779E-02
DAV:   6    -0.132489446101E+02   -0.14576E-07   -0.87607E-05   184   0.945E-02    0.198E-02
DAV:   7    -0.132489909334E+02   -0.46323E-04   -0.27241E-05   184   0.406E-02    0.713E-03
DAV:   8    -0.132489925473E+02   -0.16139E-05   -0.20353E-06   208   0.132E-02    0.276E-03
DAV:   9    -0.132490212986E+02   -0.28751E-04   -0.13062E-05   160   0.173E-02    0.182E-03
DAV:  10    -0.132490232969E+02   -0.19983E-05   -0.26577E-07   192   0.333E-03    0.986E-04
DAV:  11    -0.132490249095E+02   -0.16126E-05   -0.23749E-07   168   0.334E-03    0.401E-04
DAV:  12    -0.132490263731E+02   -0.14636E-05   -0.98399E-08   144   0.173E-03    0.214E-04
DAV:  13    -0.132490264564E+02   -0.83364E-07   -0.19402E-08   176   0.881E-04
   3 F= -.13400006E+02 E0= -.13400006E+02  d E =0.445274E+00
       N       E                     dE             d eps       ncg     rms          rms(c)
DAV:   1    -0.143293932578E+02   -0.10804E+01   -0.67712E+01   144   0.775E+01    0.280E+00
DAV:   2    -0.142113171997E+02    0.11808E+00   -0.93056E-01   200   0.950E+00    0.103E+00
DAV:   3    -0.141942430979E+02    0.17074E-01   -0.55923E-02   200   0.216E+00    0.457E-01
DAV:   4    -0.141928017393E+02    0.14414E-02   -0.98304E-03   144   0.833E-01    0.142E-01
DAV:   5    -0.141926528635E+02    0.14888E-03   -0.86241E-04   216   0.259E-01    0.411E-02
DAV:   6    -0.141926781101E+02   -0.25247E-04   -0.86151E-05   160   0.902E-02    0.721E-03
DAV:   7    -0.141926834608E+02   -0.53507E-05   -0.36648E-06   192   0.168E-02    0.457E-03
DAV:   8    -0.141926881083E+02   -0.46475E-05   -0.74616E-07   184   0.646E-03    0.109E-03
DAV:   9    -0.141926903295E+02   -0.22213E-05   -0.11573E-07   192   0.291E-03    0.473E-04
DAV:  10    -0.141926919073E+02   -0.15778E-05   -0.16647E-08   192   0.918E-04    0.146E-04
DAV:  11    -0.141926930454E+02   -0.11380E-05   -0.10545E-08   184   0.526E-04    0.144E-04
DAV:  12    -0.141926934845E+02   -0.43910E-06   -0.33936E-09   192   0.332E-04
   4 F= -.14343844E+02 E0= -.14339099E+02  d E =-.498565E+00
       N       E                     dE             d eps       ncg     rms          rms(c)
DAV:   1    -0.832800515004E+01    0.58647E+01   -0.40505E+02   136   0.174E+02    0.864E+00
DAV:   2    -0.680905110971E+01    0.15190E+01   -0.82159E+00   176   0.319E+01    0.457E+00
DAV:   3    -0.614203997754E+01    0.66701E+00   -0.35826E+00   216   0.147E+01    0.145E+00
DAV:   4    -0.611865922893E+01    0.23381E-01   -0.82333E-02   192   0.284E+00    0.536E-01
DAV:   5    -0.611849498968E+01    0.16424E-03   -0.33817E-03   200   0.568E-01    0.224E-01
DAV:   6    -0.611863116046E+01   -0.13617E-03   -0.24137E-03   208   0.424E-01    0.158E-01
DAV:   7    -0.611848056509E+01    0.15060E-03   -0.17251E-03   200   0.309E-01    0.145E-01
DAV:   8    -0.611831850496E+01    0.16206E-03   -0.30265E-04   176   0.157E-01    0.314E-02
DAV:   9    -0.611852709300E+01   -0.20859E-03   -0.35651E-05   184   0.610E-02    0.114E-02
DAV:  10    -0.611865795181E+01   -0.13086E-03   -0.58221E-05   168   0.361E-02    0.734E-03
DAV:  11    -0.611879730656E+01   -0.13935E-03   -0.92200E-06   176   0.125E-02    0.219E-03
DAV:  12    -0.611884141252E+01   -0.44106E-04   -0.39653E-06   200   0.735E-03    0.142E-03
DAV:  13    -0.611887608460E+01   -0.34672E-04   -0.47467E-06   160   0.598E-03    0.111E-03
DAV:  14    -0.611887994352E+01   -0.38589E-05   -0.18993E-07   184   0.160E-03    0.498E-04
DAV:  15    -0.611888219617E+01   -0.22527E-05   -0.29232E-07   168   0.134E-03    0.237E-04
DAV:  16    -0.611888339549E+01   -0.11993E-05   -0.69864E-08   176   0.870E-04    0.401E-04
DAV:  17    -0.611888357509E+01   -0.17960E-06   -0.14511E-09   192   0.243E-04
   5 F= -.62697989E+01 E0= -.62628869E+01  d E =0.807405E+01
       N       E                     dE             d eps       ncg     rms          rms(c)
DAV:   1    -0.160884059744E+02   -0.99695E+01   -0.39138E+02   128   0.181E+02    0.753E+00
DAV:   2    -0.147872380614E+02    0.13012E+01   -0.64006E+00   208   0.251E+01    0.374E+00
DAV:   3    -0.143145951557E+02    0.47264E+00   -0.13725E+00   184   0.102E+01    0.642E-01
DAV:   4    -0.143194582535E+02   -0.48631E-02   -0.98948E-02   200   0.284E+00    0.390E-01
DAV:   5    -0.143187358297E+02    0.72242E-03   -0.22365E-03   200   0.454E-01    0.138E-01
DAV:   6    -0.143186568092E+02    0.79021E-04   -0.35626E-04   176   0.160E-01    0.298E-02
DAV:   7    -0.143186768981E+02   -0.20089E-04   -0.12713E-04   184   0.758E-02    0.162E-02
DAV:   8    -0.143186758050E+02    0.10931E-05   -0.10467E-04   176   0.540E-02    0.107E-02
DAV:   9    -0.143186588022E+02    0.17003E-04   -0.37936E-05   168   0.304E-02    0.629E-03
DAV:  10    -0.143186828795E+02   -0.24077E-04   -0.36240E-06   152   0.134E-02    0.333E-03
DAV:  11    -0.143186932172E+02   -0.10338E-04   -0.73713E-07   160   0.540E-03    0.215E-03
DAV:  12    -0.143186980126E+02   -0.47953E-05   -0.54275E-07   152   0.394E-03    0.437E-04
DAV:  13    -0.143187008495E+02   -0.28369E-05   -0.10950E-07   152   0.143E-03    0.239E-04
DAV:  14    -0.143187013069E+02   -0.45735E-06   -0.58050E-08   152   0.913E-04
   6 F= -.14469798E+02 E0= -.14469788E+02  d E =-.125954E+00
       N       E                     dE             d eps       ncg     rms          rms(c)
DAV:   1    -0.143447693753E+02   -0.26069E-01   -0.49495E-01   144   0.662E+00    0.219E-01
DAV:   2    -0.143441201367E+02    0.64924E-03   -0.56366E-03   208   0.789E-01    0.118E-01
DAV:   3    -0.143437647680E+02    0.35537E-03   -0.13784E-03   176   0.340E-01    0.131E-02
DAV:   4    -0.143437743896E+02   -0.96216E-05   -0.10090E-04   200   0.928E-02    0.940E-03
DAV:   5    -0.143437744065E+02   -0.16892E-07   -0.25807E-06   192   0.127E-02
   7 F= -.14494847E+02 E0= -.14494847E+02  d E =-.151003E+00
       N       E                     dE             d eps       ncg     rms          rms(c)
DAV:   1    -0.143480029423E+02   -0.42286E-02   -0.16088E-01   144   0.377E+00    0.125E-01
DAV:   2    -0.143477605714E+02    0.24237E-03   -0.16512E-03   200   0.442E-01    0.669E-02
DAV:   3    -0.143476474301E+02    0.11314E-03   -0.46801E-04   176   0.199E-01    0.703E-03
DAV:   4    -0.143476506033E+02   -0.31732E-05   -0.36859E-05   192   0.558E-02    0.544E-03
DAV:   5    -0.143476508080E+02   -0.20468E-06   -0.10137E-06   160   0.880E-03
   8 F= -.14498711E+02 E0= -.14498711E+02  d E =-.154867E+00
       N       E                     dE             d eps       ncg     rms          rms(c)
DAV:   1    -0.144009175648E+02   -0.53267E-01   -0.58749E+01   128   0.732E+01    0.310E+00
DAV:   2    -0.142548122488E+02    0.14611E+00   -0.59568E-01   200   0.806E+00    0.144E+00
DAV:   3    -0.142130537990E+02    0.41758E-01   -0.12223E-01   184   0.296E+00    0.522E-01
DAV:   4    -0.142109906405E+02    0.20632E-02   -0.12366E-02   168   0.977E-01    0.250E-01
DAV:   5    -0.142102279530E+02    0.76269E-03   -0.29501E-03   160   0.477E-01    0.697E-02
DAV:   6    -0.142102528907E+02   -0.24938E-04   -0.28891E-04   168   0.161E-01    0.240E-02
DAV:   7    -0.142102755797E+02   -0.22689E-04   -0.23748E-05   168   0.413E-02    0.949E-03
DAV:   8    -0.142103013643E+02   -0.25785E-04   -0.15213E-06   160   0.109E-02    0.241E-03
DAV:   9    -0.142103300243E+02   -0.28660E-04   -0.12799E-06   176   0.795E-03    0.356E-03
DAV:  10    -0.142103584344E+02   -0.28410E-04   -0.29074E-06   152   0.777E-03    0.141E-03
DAV:  11    -0.142103619432E+02   -0.35088E-05   -0.10172E-07   184   0.189E-03    0.821E-04
DAV:  12    -0.142103678889E+02   -0.59458E-05   -0.14354E-07   168   0.162E-03    0.401E-04
DAV:  13    -0.142103696533E+02   -0.17644E-05   -0.57626E-08   168   0.901E-04    0.219E-04
DAV:  14    -0.142103699671E+02   -0.31373E-06   -0.59221E-09   176   0.331E-04
   9 F= -.14361481E+02 E0= -.14354716E+02  d E =0.137230E+00
       N       E                     dE             d eps       ncg     rms          rms(c)
DAV:   1    -0.145681211104E+02   -0.35775E+00   -0.18857E+01   128   0.425E+01    0.173E+00
DAV:   2    -0.145190636596E+02    0.49057E-01   -0.20807E-01   216   0.447E+00    0.905E-01
DAV:   3    -0.145007622553E+02    0.18301E-01   -0.56305E-02   168   0.210E+00    0.138E-01
DAV:   4    -0.145010158413E+02   -0.25359E-03   -0.34255E-03   176   0.521E-01    0.771E-02
DAV:   5    -0.145010579172E+02   -0.42076E-04   -0.12735E-04   184   0.971E-02    0.178E-02
DAV:   6    -0.145010817112E+02   -0.23794E-04   -0.10369E-05   200   0.285E-02    0.807E-03
DAV:   7    -0.145011120357E+02   -0.30325E-04   -0.69553E-06   168   0.177E-02    0.298E-03
DAV:   8    -0.145011366653E+02   -0.24630E-04   -0.62003E-06   168   0.128E-02    0.187E-03
DAV:   9    -0.145011434974E+02   -0.68321E-05   -0.13093E-06   168   0.535E-03    0.104E-03
DAV:  10    -0.145011466291E+02   -0.31317E-05   -0.72547E-07   160   0.364E-03    0.410E-04
DAV:  11    -0.145011480705E+02   -0.14414E-05   -0.84956E-08   168   0.137E-03    0.265E-04
DAV:  12    -0.145011483085E+02   -0.23799E-06   -0.31688E-08   160   0.733E-04
  10 F= -.14652233E+02 E0= -.14650608E+02  d E =-.153522E+00
       N       E                     dE             d eps       ncg     rms          rms(c)
DAV:   1    -0.144472512569E+02    0.53897E-01   -0.89327E+00   136   0.287E+01    0.886E-01
DAV:   2    -0.144376963316E+02    0.95549E-02   -0.87930E-02   192   0.318E+00    0.484E-01
DAV:   3    -0.144319980323E+02    0.56983E-02   -0.20452E-02   152   0.132E+00    0.588E-02
DAV:   4    -0.144321805673E+02   -0.18254E-03   -0.18895E-03   184   0.377E-01    0.393E-02
DAV:   5    -0.144321705292E+02    0.10038E-04   -0.55373E-05   168   0.698E-02    0.141E-02
DAV:   6    -0.144321735447E+02   -0.30155E-05   -0.93136E-06   144   0.275E-02    0.246E-03
DAV:   7    -0.144321752466E+02   -0.17020E-05   -0.74469E-07   144   0.815E-03    0.447E-04
DAV:   8    -0.144321760474E+02   -0.80074E-06   -0.37523E-08   176   0.172E-03
  11 F= -.14583163E+02 E0= -.14583163E+02  d E =0.690698E-01
       N       E                     dE             d eps       ncg     rms          rms(c)
DAV:   1    -0.145203079716E+02   -0.88133E-01   -0.47087E+00   136   0.208E+01    0.631E-01
DAV:   2    -0.145157720220E+02    0.45359E-02   -0.47222E-02   176   0.231E+00    0.347E-01
DAV:   3    -0.145129072747E+02    0.28647E-02   -0.10869E-02   152   0.958E-01    0.396E-02
DAV:   4    -0.145129840380E+02   -0.76763E-04   -0.83529E-04   216   0.261E-01    0.262E-02
DAV:   5    -0.145129843623E+02   -0.32431E-06   -0.12247E-05   160   0.336E-02    0.827E-03
DAV:   6    -0.145129865354E+02   -0.21731E-05   -0.37207E-06   192   0.169E-02    0.177E-03
DAV:   7    -0.145129889892E+02   -0.24537E-05   -0.48046E-07   160   0.615E-03    0.441E-04
DAV:   8    -0.145129901076E+02   -0.11185E-05   -0.63719E-08   184   0.179E-03    0.293E-04
DAV:   9    -0.145129921904E+02   -0.20828E-05   -0.29647E-07   152   0.244E-03    0.323E-04
DAV:  10    -0.145129925754E+02   -0.38496E-06   -0.22479E-08   168   0.755E-04
  12 F= -.14664049E+02 E0= -.14663995E+02  d E =-.118163E-01
