 vasp.6.2.1 16May21 (build Oct 21 2023 21:03:18) complex                        
  
 executed on             LinuxIFC date 2024.06.15  15:40:26
 running on    2 total cores
 distrk:  each k-point on    2 cores,    1 groups
 distr:  one band on NCORE=   1 cores,    2 groups


--------------------------------------------------------------------------------------------------------


 INCAR:
   PREC = accurate
   ENCUT = 600
   EDIFF = 1e-06
   EDIFFG = 1e-05
   IBRION = 2
   ISIF = 2
   ISYM = 2
   ISMEAR = 0
   SIGMA = 0.1
   LREAL = False
   NPAR = 4
   NSW = 300
   ISTART = 0
   LVDW = True
   IVDW = 12
   LCHARG = False
   LPLANE = False
   LWAVE = False

 POTCAR:    PAW_PBE C 08Apr2002                   
 -----------------------------------------------------------------------------
|                                                                             |
|           W    W    AA    RRRRR   N    N  II  N    N   GGGG   !!!           |
|           W    W   A  A   R    R  NN   N  II  NN   N  G    G  !!!           |
|           W    W  A    A  R    R  N N  N  II  N N  N  G       !!!           |
|           W WW W  AAAAAA  RRRRR   N  N N  II  N  N N  G  GGG   !            |
|           WW  WW  A    A  R   R   N   NN  II  N   NN  G    G                |
|           W    W  A    A  R    R  N    N  II  N    N   GGGG   !!!           |
|                                                                             |
|     The value NPAR = 4 specified in the INCAR file was overwritten,         |
|     because it was not compatible with the 2 processes available:           |
|     NPAR = 2                                                                |
|     was used instead, please check that this makes sense for your           |
|     machine.                                                                |
|                                                                             |
 -----------------------------------------------------------------------------

 POTCAR:    PAW_PBE C 08Apr2002                   
   SHA256 =  253f7b50bb8d59471dbedb8285d89021f4a42ed1a2c5d38a03a736e69125dd95 C/POTCAR              
   COPYR  = (c) Copyright 08Apr2002 Georg Kresse                                                    
   COPYR  = This file is part of the software VASP. Any use, copying, and all other rights are regul
   COPYR  = If you do not have a valid VASP license, you may not use, copy or distribute this file. 
   VRHFIN =C: s2p2                                                                                  
   LEXCH  = PE                                                                                      
   EATOM  =   147.1560 eV,   10.8157 Ry                                                             
                                                                                                    
   TITEL  = PAW_PBE C 08Apr2002                                                                     
   LULTRA =        F    use ultrasoft PP ?                                                          
   IUNSCR =        1    unscreen: 0-lin 1-nonlin 2-no                                               
   RPACOR =    1.200    partial core radius                                                         
   POMASS =   12.011; ZVAL   =    4.000    mass and valenz                                          
   RCORE  =    1.500    outmost cutoff radius                                                       
   RWIGS  =    1.630; RWIGS  =    0.863    wigner-seitz radius (au A)                               
   ENMAX  =  400.000; ENMIN  =  300.000 eV                                                          
   ICORE  =        2    local potential                                                             
   LCOR   =        T    correct aug charges                                                         
   LPAW   =        T    paw PP                                                                      
   EAUG   =  644.873                                                                                
   DEXC   =    0.000                                                                                
   RMAX   =    1.529    core radius for proj-oper                                                   
   RAUG   =    1.300    factor for augmentation sphere                                              
   RDEP   =    1.501    radius for radial grids                                                     
   RDEPT  =    1.300    core radius for aug-charge                                                  
                                                                                                    
   Atomic configuration                                                                             
    4 entries                                                                                       
     n  l   j            E        occ.                                                              
     1  0  0.50      -273.3789   2.0000                                                             
     2  0  0.50       -13.7508   2.0000                                                             
     2  1  0.50        -5.2854   2.0000                                                             
     3  2  1.50        -5.4423   0.0000                                                             
   Description                                                                                      
     l       E           TYP  RCUT    TYP  RCUT                                                     
     0    -13.7508458     23  1.200                                                                 
     0     -8.2022199     23  1.200                                                                 
     1     -5.2854383     23  1.500                                                                 
     1     34.0145650     23  1.500                                                                 
     2     -5.4423304      7  1.500                                                                 
  local pseudopotential read in
  partial core-charges read in
  partial kinetic energy density read in
  atomic valenz-charges read in
  non local Contribution for L=           0  read in
    real space projection operators read in
  non local Contribution for L=           0  read in
    real space projection operators read in
  non local Contribution for L=           1  read in
    real space projection operators read in
  non local Contribution for L=           1  read in
    real space projection operators read in
    PAW grid and wavefunctions read in
 
   number of l-projection  operators is LMAX  =           4
   number of lm-projection operators is LMMAX =           8
 
  PAW_PBE C 08Apr2002                   :
 energy of atom  1       EATOM= -147.1560
 kinetic energy error for atom=    0.0057 (will be added to EATOM!!)
 
 
 POSCAR:  C
  positions in direct lattice
  No initial velocities read in
 exchange correlation table for  LEXCH =        8
   RHO(1)=    0.500       N(1)  =     2000
   RHO(2)=  100.500       N(2)  =     4000
 


--------------------------------------------------------------------------------------------------------


 ion  position               nearest neighbor table
   1  0.333  0.333  0.500-   2 1.19   2 1.33   2 1.61
   2  0.667  0.667  0.500-   1 1.19   1 1.33   1 1.61
 
  LATTYP: Found a simple monoclinic cell.
 ALAT       =     1.9504407616
 B/A-ratio  =    10.2540925073
 C/A-ratio  =     1.2779583235
 COS(beta)  =    -0.2804084539
  
  Lattice vectors:
  
 A1 = (   0.8137800000,  -1.7725634760,   0.0000000000)
 A2 = (   0.0000000000,   0.0000000000,  20.0000000000)
 A3 = (  -2.4660000000,  -0.3630551698,   0.0000000000)


Analysis of symmetry for initial positions (statically):
=====================================================================
 Subroutine PRICEL returns:
 Original cell was already a primitive cell.
 

 Routine SETGRP: Setting up the symmetry group for a 
 simple monoclinic supercell.


 Subroutine GETGRP returns: Found  4 space group operations
 (whereof  4 operations were pure point group operations)
 out of a pool of  4 trial point group operations.


The static configuration has the point symmetry C_2h.


Analysis of symmetry for dynamics (positions and initial velocities):
=====================================================================
 Subroutine PRICEL returns:
 Original cell was already a primitive cell.
 

 Routine SETGRP: Setting up the symmetry group for a 
 simple monoclinic supercell.


 Subroutine GETGRP returns: Found  4 space group operations
 (whereof  4 operations were pure point group operations)
 out of a pool of  4 trial point group operations.


The dynamic configuration has the point symmetry C_2h.


Analysis of constrained symmetry for selective dynamics:
=====================================================================
 Subroutine PRICEL returns:
 Original cell was already a primitive cell.
 

 Routine SETGRP: Setting up the symmetry group for a 
 simple monoclinic supercell.


 Subroutine GETGRP returns: Found  4 space group operations
 (whereof  4 operations were pure point group operations)
 out of a pool of  4 trial point group operations.


The constrained configuration has the point symmetry C_2h.


 Subroutine INISYM returns: Found  4 space group operations
 (whereof  4 operations are pure point group operations),
 and found     1 'primitive' translations


----------------------------------------------------------------------------------------

                                     Primitive cell                                     

  volume of cell :      93.3318

  direct lattice vectors                    reciprocal lattice vectors
     2.466000000  0.363055170  0.000000000     0.457640226 -0.354053068  0.000000000
     1.652220000  2.135618646  0.000000000    -0.077798838  0.528437415  0.000000000
     0.000000000  0.000000000 20.000000000     0.000000000  0.000000000  0.050000000

  length of vectors
     2.492582006  2.700129243 20.000000000     0.578608807  0.534133655  0.050000000

  position of ions in fractional coordinates (direct lattice)
     0.333333333  0.333333333  0.500000000
     0.666666667  0.666666667  0.500000000

  ion indices of the primitive-cell ions
   primitive index   ion index
                 1           1
                 2           2

----------------------------------------------------------------------------------------

 
 
 KPOINTS: KPOINTS created by Atomic Simulation Env

Automatic generation of k-mesh.
 Grid dimensions read from file:
 generate k-points for:    4    4    1

 Generating k-lattice:

  Cartesian coordinates                     Fractional coordinates (reciprocal lattice)
     0.114410056 -0.088513267  0.000000000     0.250000000 -0.000000000  0.000000000
    -0.019449710  0.132109354  0.000000000     0.000000000  0.250000000  0.000000000
     0.000000000  0.000000000  0.050000000     0.000000000  0.000000000  1.000000000

  Length of vectors
     0.144652202  0.133533414  0.050000000

  Shift w.r.t. Gamma in fractional coordinates (k-lattice)
     0.500000000  0.500000000  0.000000000

 
 Subroutine IBZKPT returns following result:
 ===========================================
 
 Found      8 irreducible k-points:
 
 Following reciprocal coordinates:
            Coordinates               Weight
  0.125000  0.125000  0.000000      2.000000
  0.375000  0.125000  0.000000      2.000000
 -0.375000  0.125000  0.000000      2.000000
 -0.125000  0.125000  0.000000      2.000000
  0.125000  0.375000  0.000000      2.000000
  0.375000  0.375000  0.000000      2.000000
 -0.375000  0.375000  0.000000      2.000000
 -0.125000  0.375000  0.000000      2.000000
 
 Following cartesian coordinates:
            Coordinates               Weight
  0.047480  0.021798  0.000000      2.000000
  0.161890 -0.066715  0.000000      2.000000
 -0.181340  0.198825  0.000000      2.000000
 -0.066930  0.110311  0.000000      2.000000
  0.028030  0.153907  0.000000      2.000000
  0.142441  0.065394  0.000000      2.000000
 -0.200790  0.330934  0.000000      2.000000
 -0.086380  0.242421  0.000000      2.000000
 


--------------------------------------------------------------------------------------------------------




 Dimension of arrays:
   k-points           NKPTS =      8   k-points in BZ     NKDIM =      8   number of bands    NBANDS=      8
   number of dos      NEDOS =    301   number of ions     NIONS =      2
   non local maximal  LDIM  =      4   non local SUM 2l+1 LMDIM =      8
   total plane-waves  NPLWV =  76800
   max r-space proj   IRMAX =      1   max aug-charges    IRDMAX=   9909
   dimension x,y,z NGX =    20 NGY =   24 NGZ =  160
   dimension x,y,z NGXF=    40 NGYF=   48 NGZF=  320
   support grid    NGXF=    40 NGYF=   48 NGZF=  320
   ions per type =               2
   NGX,Y,Z   is equivalent  to a cutoff of  13.34, 14.78, 13.30 a.u.
   NGXF,Y,Z  is equivalent  to a cutoff of  26.68, 29.55, 26.60 a.u.

 SYSTEM =  unknown system                          
 POSCAR =   C                                      

 Startparameter for this run:
   NWRITE =      2    write-flag & timer
   PREC   = accura    normal or accurate (medium, high low for compatibility)
   ISTART =      0    job   : 0-new  1-cont  2-samecut
   ICHARG =      2    charge: 1-file 2-atom 10-const
   ISPIN  =      1    spin polarized calculation?
   LNONCOLLINEAR =      F non collinear calculations
   LSORBIT =      F    spin-orbit coupling
   INIWAV =      1    electr: 0-lowe 1-rand  2-diag
   LASPH  =      F    aspherical Exc in radial PAW
 Electronic Relaxation 1
   ENCUT  =  600.0 eV  44.10 Ry    6.64 a.u.   4.98  5.39 39.94*2*pi/ulx,y,z
   ENINI  =  600.0     initial cutoff
   ENAUG  =  644.9 eV  augmentation charge cutoff
   NELM   =     60;   NELMIN=  2; NELMDL= -5     # of ELM steps 
   EDIFF  = 0.1E-05   stopping-criterion for ELM
   LREAL  =      F    real-space projection
   NLSPLINE    = F    spline interpolate recip. space projectors
   LCOMPAT=      F    compatible to vasp.4.4
   GGA_COMPAT  = T    GGA compatible to vasp.4.4-vasp.4.6
   LMAXPAW     = -100 max onsite density
   LMAXMIX     =    2 max onsite mixed and CHGCAR
   VOSKOWN=      0    Vosko Wilk Nusair interpolation
   ROPT   =    0.00000
 Ionic relaxation
   EDIFFG = 0.1E-04   stopping-criterion for IOM
   NSW    =    300    number of steps for IOM
   NBLOCK =      1;   KBLOCK =    300    inner block; outer block 
   IBRION =      2    ionic relax: 0-MD 1-quasi-New 2-CG
   NFREE  =      1    steps in history (QN), initial steepest desc. (CG)
   ISIF   =      2    stress and relaxation
   IWAVPR =     11    prediction:  0-non 1-charg 2-wave 3-comb
   ISYM   =      2    0-nonsym 1-usesym 2-fastsym
   LCORR  =      T    Harris-Foulkes like correction to forces

   POTIM  = 0.5000    time-step for ionic-motion
   TEIN   =    0.0    initial temperature
   TEBEG  =    0.0;   TEEND  =   0.0 temperature during run
   SMASS  =  -3.00    Nose mass-parameter (am)
   estimated Nose-frequenzy (Omega)   =  0.10E-29 period in steps = 0.13E+47 mass=  -0.142E-27a.u.
   SCALEE = 1.0000    scale energy and forces
   NPACO  =    256;   APACO  = 16.0  distance and # of slots for P.C.
   PSTRESS=    0.0 pullay stress

  Mass of Ions in am
   POMASS =  12.01
  Ionic Valenz
   ZVAL   =   4.00
  Atomic Wigner-Seitz radii
   RWIGS  =  -1.00
  virtual crystal weights 
   VCA    =   1.00
   NELECT =       8.0000    total number of electrons
   NUPDOWN=      -1.0000    fix difference up-down

 DOS related values:
   EMIN   =  10.00;   EMAX   =-10.00  energy-range for DOS
   EFERMI =   0.00
   ISMEAR =     0;   SIGMA  =   0.10  broadening in eV -4-tet -1-fermi 0-gaus

 Electronic relaxation 2 (details)
   IALGO  =     38    algorithm
   LDIAG  =      T    sub-space diagonalisation (order eigenvalues)
   LSUBROT=      F    optimize rotation matrix (better conditioning)
   TURBO    =      0    0=normal 1=particle mesh
   IRESTART =      0    0=no restart 2=restart with 2 vectors
   NREBOOT  =      0    no. of reboots
   NMIN     =      0    reboot dimension
   EREF     =   0.00    reference energy to select bands
   IMIX   =      4    mixing-type and parameters
     AMIX     =   0.40;   BMIX     =  1.00
     AMIX_MAG =   1.60;   BMIX_MAG =  1.00
     AMIN     =   0.10
     WC   =   100.;   INIMIX=   1;  MIXPRE=   1;  MAXMIX= -45

 Intra band minimization:
   WEIMIN = 0.0010     energy-eigenvalue tresh-hold
   EBREAK =  0.31E-07  absolut break condition
   DEPER  =   0.30     relativ break condition  

   TIME   =   0.40     timestep for ELM

  volume/ion in A,a.u.               =      46.67       314.92
  Fermi-wavevector in a.u.,A,eV,Ry     =   0.721819  1.364040  7.088944  0.521023
  Thomas-Fermi vector in A             =   1.811624
 
 Write flags
   LWAVE        =      F    write WAVECAR
   LDOWNSAMPLE  =      F    k-point downsampling of WAVECAR
   LCHARG       =      F    write CHGCAR
   LVTOT        =      F    write LOCPOT, total local potential
   LVHAR        =      F    write LOCPOT, Hartree potential only
   LELF         =      F    write electronic localiz. function (ELF)
   LORBIT       =      0    0 simple, 1 ext, 2 COOP (PROOUT), +10 PAW based schemes


 Dipole corrections
   LMONO  =      F    monopole corrections only (constant potential shift)
   LDIPOL =      F    correct potential (dipole corrections)
   IDIPOL =      0    1-x, 2-y, 3-z, 4-all directions 
   EPSILON=  1.0000000 bulk dielectric constant

 Exchange correlation treatment:
   GGA     =    --    GGA type
   LEXCH   =     8    internal setting for exchange type
   VOSKOWN=      0    Vosko Wilk Nusair interpolation
   LHFCALC =     F    Hartree Fock is set to
   LHFONE  =     F    Hartree Fock one center treatment
   AEXX    =    0.0000 exact exchange contribution

 Linear response parameters
   LEPSILON=     F    determine dielectric tensor
   LRPA    =     F    only Hartree local field effects (RPA)
   LNABLA  =     F    use nabla operator in PAW spheres
   LVEL    =     F    velocity operator in full k-point grid
   LINTERFAST=   F  fast interpolation
   KINTER  =     0    interpolate to denser k-point grid
   CSHIFT  =0.1000    complex shift for real part using Kramers Kronig
   OMEGAMAX=  -1.0    maximum frequency
   DEG_THRESHOLD= 0.2000000E-02 threshold for treating states as degnerate
   RTIME   =   -0.100 relaxation time in fs
  (WPLASMAI=    0.000 imaginary part of plasma frequency in eV, 0.658/RTIME)
   DFIELD  = 0.0000000 0.0000000 0.0000000 field for delta impulse in time
 
 Orbital magnetization related:
   ORBITALMAG=     F  switch on orbital magnetization
   LCHIMAG   =     F  perturbation theory with respect to B field
   DQ        =  0.001000  dq finite difference perturbation B field
   LLRAUG    =     F  two centre corrections for induced B field



--------------------------------------------------------------------------------------------------------


 conjugate gradient relaxation of ions
   using selective dynamics as specified on POSCAR
 charge density and potential will be updated during run
 non-spin polarized calculation
 Variant of blocked Davidson
 Davidson routine will perform the subspace rotation
 perform sub-space diagonalisation
    after iterative eigenvector-optimisation
 modified Broyden-mixing scheme, WC =      100.0
 initial mixing is a Kerker type mixing with AMIX =  0.4000 and BMIX =      1.0000
 Hartree-type preconditioning will be used
 using additional bands            4
 reciprocal scheme for non local part
 use partial core corrections
 calculate Harris-corrections to forces 
   (improved forces if not selfconsistent)
 use gradient corrections 
 use of overlap-Matrix (Vanderbilt PP)
 Gauss-broadening in eV      SIGMA  =   0.10


--------------------------------------------------------------------------------------------------------


  energy-cutoff  :      600.00
  volume of cell :       93.33
      direct lattice vectors                 reciprocal lattice vectors
     2.466000000  0.363055170  0.000000000     0.457640226 -0.354053068  0.000000000
     1.652220000  2.135618646  0.000000000    -0.077798838  0.528437415  0.000000000
     0.000000000  0.000000000 20.000000000     0.000000000  0.000000000  0.050000000

  length of vectors
     2.492582006  2.700129243 20.000000000     0.578608807  0.534133655  0.050000000


 
 k-points in units of 2pi/SCALE and weight: KPOINTS created by Atomic Simulation Env
   0.04748017  0.02179804  0.00000000       0.125
   0.16189023 -0.06671522  0.00000000       0.125
  -0.18133994  0.19882458  0.00000000       0.125
  -0.06692988  0.11031131  0.00000000       0.125
   0.02803046  0.15390740  0.00000000       0.125
   0.14244052  0.06539413  0.00000000       0.125
  -0.20078965  0.33093393  0.00000000       0.125
  -0.08637959  0.24242066  0.00000000       0.125
 
 k-points in reciprocal lattice and weights: KPOINTS created by Atomic Simulation Env
   0.12500000  0.12500000  0.00000000       0.125
   0.37500000  0.12500000  0.00000000       0.125
  -0.37500000  0.12500000  0.00000000       0.125
  -0.12500000  0.12500000  0.00000000       0.125
   0.12500000  0.37500000  0.00000000       0.125
   0.37500000  0.37500000  0.00000000       0.125
  -0.37500000  0.37500000  0.00000000       0.125
  -0.12500000  0.37500000  0.00000000       0.125
 
 position of ions in fractional coordinates (direct lattice) 
   0.33333333  0.33333333  0.50000000
   0.66666667  0.66666667  0.50000000
 
 position of ions in cartesian coordinates  (Angst):
   1.37274000  0.83289127 10.00000000
   2.74548000  1.66578254 10.00000000
 


--------------------------------------------------------------------------------------------------------


 k-point   1 :   0.1250 0.1250 0.0000  plane waves:    3078
 k-point   2 :   0.3750 0.1250 0.0000  plane waves:    3129
 k-point   3 :  -0.3750 0.1250 0.0000  plane waves:    3160
 k-point   4 :  -0.1250 0.1250 0.0000  plane waves:    3135
 k-point   5 :   0.1250 0.3750 0.0000  plane waves:    3085
 k-point   6 :   0.3750 0.3750 0.0000  plane waves:    3111
 k-point   7 :  -0.3750 0.3750 0.0000  plane waves:    3124
 k-point   8 :  -0.1250 0.3750 0.0000  plane waves:    3110

 maximum and minimum number of plane-waves per node :      3160     3078

 maximum number of plane-waves:      3160
 maximum index in each direction: 
   IXMAX=    5   IYMAX=    5   IZMAX=   39
   IXMIN=   -5   IYMIN=   -5   IZMIN=  -39


 serial   3D FFT for wavefunctions

 total amount of memory used by VASP MPI-rank0    61901. kBytes
=======================================================================

   base      :      30000. kBytes
   nonl-proj :       1719. kBytes
   fftplans  :      10664. kBytes
   grid      :      17886. kBytes
   one-center:          6. kBytes
   wavefun   :       1626. kBytes
 
     INWAV:  cpu time    0.0000: real time    0.0000
 Broyden mixing: mesh for mixing (old mesh)
   NGX =  9   NGY = 11   NGZ = 79
  (NGX  = 40   NGY  = 48   NGZ  =320)
  gives a total of   7821 points

 initial charge density was supplied:
 charge density of overlapping atoms calculated
 number of electron       8.0000000 magnetization 
 keeping initial charge density in first step


--------------------------------------------------------------------------------------------------------


 Maximum index for augmentation-charges         4711 (set IRDMAX)


--------------------------------------------------------------------------------------------------------


 First call to EWALD:  gamma=   0.391
 Maximum number of real-space cells 6x 6x 1
 Maximum number of reciprocal cells 2x 2x10

    FEWALD:  cpu time    0.0009: real time    0.0009


--------------------------------------- Iteration      1(   1)  ---------------------------------------


    POTLOK:  cpu time    0.0985: real time    0.0986
    SETDIJ:  cpu time    0.0008: real time    0.0008
     EDDAV:  cpu time    0.1485: real time    0.1486
       DOS:  cpu time    0.0001: real time    0.0001
    --------------------------------------------
      LOOP:  cpu time    0.2479: real time    0.2480

 eigenvalue-minimisations  :   144
 total energy-change (2. order) : 0.5902850E+02  (-0.3935924E+03)
 number of electron       8.0000000 magnetization 
 augmentation part        8.0000000 magnetization 

 Free energy of the ion-electron system (eV)
  ---------------------------------------------------
  alpha Z        PSCENC =         3.52063246
  Ewald energy   TEWEN  =      1501.33184723
  -Hartree energ DENC   =     -1699.63894075
  -exchange      EXHF   =         0.00000000
  -V(xc)+E(xc)   XCENC  =        27.25609847
  PAW double counting   =       217.04409276     -218.18290438
  entropy T*S    EENTRO =        -0.00063662
  eigenvalues    EBANDS =       -66.60226018
  atomic energy  EATOM  =       294.30057552
  Solvation  Ediel_sol  =         0.00000000
  ---------------------------------------------------
  free energy    TOTEN  =        59.02850451 eV

  energy without entropy =       59.02914113  energy(sigma->0) =       59.02882282


--------------------------------------------------------------------------------------------------------




--------------------------------------- Iteration      1(   2)  ---------------------------------------


     EDDAV:  cpu time    0.1834: real time    0.1834
       DOS:  cpu time    0.0001: real time    0.0001
    --------------------------------------------
      LOOP:  cpu time    0.1834: real time    0.1834

 eigenvalue-minimisations  :   184
 total energy-change (2. order) :-0.7162154E+02  (-0.6321343E+02)
 number of electron       8.0000000 magnetization 
 augmentation part        8.0000000 magnetization 

 Free energy of the ion-electron system (eV)
  ---------------------------------------------------
  alpha Z        PSCENC =         3.52063246
  Ewald energy   TEWEN  =      1501.33184723
  -Hartree energ DENC   =     -1699.63894075
  -exchange      EXHF   =         0.00000000
  -V(xc)+E(xc)   XCENC  =        27.25609847
  PAW double counting   =       217.04409276     -218.18290438
  entropy T*S    EENTRO =        -0.00000000
  eigenvalues    EBANDS =      -138.22443826
  atomic energy  EATOM  =       294.30057552
  Solvation  Ediel_sol  =         0.00000000
  ---------------------------------------------------
  free energy    TOTEN  =       -12.59303695 eV

  energy without entropy =      -12.59303695  energy(sigma->0) =      -12.59303695


--------------------------------------------------------------------------------------------------------




--------------------------------------- Iteration      1(   3)  ---------------------------------------


     EDDAV:  cpu time    0.2076: real time    0.2076
       DOS:  cpu time    0.0001: real time    0.0001
    --------------------------------------------
      LOOP:  cpu time    0.2076: real time    0.2077

 eigenvalue-minimisations  :   240
 total energy-change (2. order) :-0.4018554E+01  (-0.4018554E+01)
 number of electron       8.0000000 magnetization 
 augmentation part        8.0000000 magnetization 

 Free energy of the ion-electron system (eV)
  ---------------------------------------------------
  alpha Z        PSCENC =         3.52063246
  Ewald energy   TEWEN  =      1501.33184723
  -Hartree energ DENC   =     -1699.63894075
  -exchange      EXHF   =         0.00000000
  -V(xc)+E(xc)   XCENC  =        27.25609847
  PAW double counting   =       217.04409276     -218.18290438
  entropy T*S    EENTRO =        -0.00000000
  eigenvalues    EBANDS =      -142.24299231
  atomic energy  EATOM  =       294.30057552
  Solvation  Ediel_sol  =         0.00000000
  ---------------------------------------------------
  free energy    TOTEN  =       -16.61159100 eV

  energy without entropy =      -16.61159100  energy(sigma->0) =      -16.61159100


--------------------------------------------------------------------------------------------------------




--------------------------------------- Iteration      1(   4)  ---------------------------------------


     EDDAV:  cpu time    0.1737: real time    0.1737
       DOS:  cpu time    0.0001: real time    0.0001
    --------------------------------------------
      LOOP:  cpu time    0.1738: real time    0.1738

 eigenvalue-minimisations  :   184
 total energy-change (2. order) :-0.5095424E-02  (-0.5095424E-02)
 number of electron       8.0000000 magnetization 
 augmentation part        8.0000000 magnetization 

 Free energy of the ion-electron system (eV)
  ---------------------------------------------------
  alpha Z        PSCENC =         3.52063246
  Ewald energy   TEWEN  =      1501.33184723
  -Hartree energ DENC   =     -1699.63894075
  -exchange      EXHF   =         0.00000000
  -V(xc)+E(xc)   XCENC  =        27.25609847
  PAW double counting   =       217.04409276     -218.18290438
  entropy T*S    EENTRO =        -0.00000000
  eigenvalues    EBANDS =      -142.24808774
  atomic energy  EATOM  =       294.30057552
  Solvation  Ediel_sol  =         0.00000000
  ---------------------------------------------------
  free energy    TOTEN  =       -16.61668643 eV

  energy without entropy =      -16.61668643  energy(sigma->0) =      -16.61668643


--------------------------------------------------------------------------------------------------------




--------------------------------------- Iteration      1(   5)  ---------------------------------------


     EDDAV:  cpu time    0.2014: real time    0.2014
       DOS:  cpu time    0.0001: real time    0.0001
    CHARGE:  cpu time    0.0175: real time    0.0175
    MIXING:  cpu time    0.0028: real time    0.0028
    --------------------------------------------
      LOOP:  cpu time    0.2218: real time    0.2218

 eigenvalue-minimisations  :   224
 total energy-change (2. order) :-0.2161144E-04  (-0.2161147E-04)
 number of electron       8.0000001 magnetization 
 augmentation part        0.2636914 magnetization 

 Broyden mixing:
  rms(total) = 0.90434E+00    rms(broyden)= 0.90430E+00
  rms(prec ) = 0.97040E+00
  weight for this iteration     100.00

 Free energy of the ion-electron system (eV)
  ---------------------------------------------------
  alpha Z        PSCENC =         3.52063246
  Ewald energy   TEWEN  =      1501.33184723
  -Hartree energ DENC   =     -1699.63894075
  -exchange      EXHF   =         0.00000000
  -V(xc)+E(xc)   XCENC  =        27.25609847
  PAW double counting   =       217.04409276     -218.18290438
  entropy T*S    EENTRO =        -0.00000000
  eigenvalues    EBANDS =      -142.24810935
  atomic energy  EATOM  =       294.30057552
  Solvation  Ediel_sol  =         0.00000000
  ---------------------------------------------------
  free energy    TOTEN  =       -16.61670804 eV

  energy without entropy =      -16.61670804  energy(sigma->0) =      -16.61670804


--------------------------------------------------------------------------------------------------------




--------------------------------------- Iteration      1(   6)  ---------------------------------------


    POTLOK:  cpu time    0.0894: real time    0.0894
    SETDIJ:  cpu time    0.0008: real time    0.0008
     EDDAV:  cpu time    0.2301: real time    0.2301
       DOS:  cpu time    0.0001: real time    0.0001
    CHARGE:  cpu time    0.0187: real time    0.0187
    MIXING:  cpu time    0.0025: real time    0.0025
    --------------------------------------------
      LOOP:  cpu time    0.3416: real time    0.3416

 eigenvalue-minimisations  :   208
 total energy-change (2. order) : 0.2196715E+01  (-0.2554560E+00)
 number of electron       8.0000001 magnetization 
 augmentation part        0.2491184 magnetization 

 Broyden mixing:
  rms(total) = 0.50168E+00    rms(broyden)= 0.50168E+00
  rms(prec ) = 0.53241E+00
  weight for this iteration     100.00

 eigenvalues of (default mixing * dielectric matrix)
  average eigenvalue GAMMA=   2.0128
  2.0128

 Free energy of the ion-electron system (eV)
  ---------------------------------------------------
  alpha Z        PSCENC =         3.52063246
  Ewald energy   TEWEN  =      1501.33184723
  -Hartree energ DENC   =     -1716.14385741
  -exchange      EXHF   =         0.00000000
  -V(xc)+E(xc)   XCENC  =        27.90978371
  PAW double counting   =       464.31341950     -465.69901416
  entropy T*S    EENTRO =        -0.00000000
  eigenvalues    EBANDS =      -123.95337980
  atomic energy  EATOM  =       294.30057552
  Solvation  Ediel_sol  =         0.00000000
  ---------------------------------------------------
  free energy    TOTEN  =       -14.41999295 eV

  energy without entropy =      -14.41999295  energy(sigma->0) =      -14.41999295


--------------------------------------------------------------------------------------------------------




--------------------------------------- Iteration      1(   7)  ---------------------------------------


    POTLOK:  cpu time    0.0968: real time    0.0968
    SETDIJ:  cpu time    0.0009: real time    0.0009
     EDDAV:  cpu time    0.2526: real time    0.2527
       DOS:  cpu time    0.0001: real time    0.0001
    CHARGE:  cpu time    0.0214: real time    0.0214
    MIXING:  cpu time    0.0027: real time    0.0027
    --------------------------------------------
      LOOP:  cpu time    0.3746: real time    0.3747

 eigenvalue-minimisations  :   224
 total energy-change (2. order) : 0.7015563E+00  (-0.2569420E+00)
 number of electron       8.0000001 magnetization 
 augmentation part        0.2338985 magnetization 

 Broyden mixing:
  rms(total) = 0.16110E+00    rms(broyden)= 0.16107E+00
  rms(prec ) = 0.16562E+00
  weight for this iteration     100.00

 eigenvalues of (default mixing * dielectric matrix)
  average eigenvalue GAMMA=   2.3736
  1.9880  2.7593

 Free energy of the ion-electron system (eV)
  ---------------------------------------------------
  alpha Z        PSCENC =         3.52063246
  Ewald energy   TEWEN  =      1501.33184723
  -Hartree energ DENC   =     -1736.19312736
  -exchange      EXHF   =         0.00000000
  -V(xc)+E(xc)   XCENC  =        28.69572376
  PAW double counting   =       935.42204713     -937.01303558
  entropy T*S    EENTRO =        -0.00000000
  eigenvalues    EBANDS =      -103.78309981
  atomic energy  EATOM  =       294.30057552
  Solvation  Ediel_sol  =         0.00000000
  ---------------------------------------------------
  free energy    TOTEN  =       -13.71843664 eV

  energy without entropy =      -13.71843664  energy(sigma->0) =      -13.71843664


--------------------------------------------------------------------------------------------------------




--------------------------------------- Iteration      1(   8)  ---------------------------------------


    POTLOK:  cpu time    0.1136: real time    0.1142
    SETDIJ:  cpu time    0.0012: real time    0.0012
     EDDAV:  cpu time    0.2413: real time    0.2413
       DOS:  cpu time    0.0001: real time    0.0001
    CHARGE:  cpu time    0.0248: real time    0.0248
    MIXING:  cpu time    0.0036: real time    0.0036
    --------------------------------------------
      LOOP:  cpu time    0.3846: real time    0.3852

 eigenvalue-minimisations  :   192
 total energy-change (2. order) : 0.2115350E-01  (-0.5803744E-02)
 number of electron       8.0000001 magnetization 
 augmentation part        0.2335949 magnetization 

 Broyden mixing:
  rms(total) = 0.29802E-01    rms(broyden)= 0.29798E-01
  rms(prec ) = 0.35812E-01
  weight for this iteration     100.00

 eigenvalues of (default mixing * dielectric matrix)
  average eigenvalue GAMMA=   1.8085
  1.1670  2.4186  1.8399

 Free energy of the ion-electron system (eV)
  ---------------------------------------------------
  alpha Z        PSCENC =         3.52063246
  Ewald energy   TEWEN  =      1501.33184723
  -Hartree energ DENC   =     -1740.73619437
  -exchange      EXHF   =         0.00000000
  -V(xc)+E(xc)   XCENC  =        28.74391415
  PAW double counting   =      1173.86091221    -1175.38822117
  entropy T*S    EENTRO =        -0.00000000
  eigenvalues    EBANDS =       -99.33074918
  atomic energy  EATOM  =       294.30057552
  Solvation  Ediel_sol  =         0.00000000
  ---------------------------------------------------
  free energy    TOTEN  =       -13.69728314 eV

  energy without entropy =      -13.69728314  energy(sigma->0) =      -13.69728314


--------------------------------------------------------------------------------------------------------




--------------------------------------- Iteration      1(   9)  ---------------------------------------


    POTLOK:  cpu time    0.1232: real time    0.1233
    SETDIJ:  cpu time    0.0014: real time    0.0014
     EDDAV:  cpu time    0.2685: real time    0.2686
       DOS:  cpu time    0.0001: real time    0.0001
    CHARGE:  cpu time    0.0289: real time    0.0289
    MIXING:  cpu time    0.0037: real time    0.0037
    --------------------------------------------
      LOOP:  cpu time    0.4258: real time    0.4260

 eigenvalue-minimisations  :   224
 total energy-change (2. order) : 0.1340190E-02  (-0.4286012E-03)
 number of electron       8.0000001 magnetization 
 augmentation part        0.2332937 magnetization 

 Broyden mixing:
  rms(total) = 0.11636E-01    rms(broyden)= 0.11635E-01
  rms(prec ) = 0.20807E-01
  weight for this iteration     100.00

 eigenvalues of (default mixing * dielectric matrix)
  average eigenvalue GAMMA=   1.9977
  1.0874  2.5651  2.5651  1.7732

 Free energy of the ion-electron system (eV)
  ---------------------------------------------------
  alpha Z        PSCENC =         3.52063246
  Ewald energy   TEWEN  =      1501.33184723
  -Hartree energ DENC   =     -1741.56877154
  -exchange      EXHF   =         0.00000000
  -V(xc)+E(xc)   XCENC  =        28.76241392
  PAW double counting   =      1145.41918978    -1146.95648772
  entropy T*S    EENTRO =        -0.00000000
  eigenvalues    EBANDS =       -98.50534261
  atomic energy  EATOM  =       294.30057552
  Solvation  Ediel_sol  =         0.00000000
  ---------------------------------------------------
  free energy    TOTEN  =       -13.69594295 eV

  energy without entropy =      -13.69594295  energy(sigma->0) =      -13.69594295


--------------------------------------------------------------------------------------------------------




--------------------------------------- Iteration      1(  10)  ---------------------------------------


    POTLOK:  cpu time    0.1206: real time    0.1207
    SETDIJ:  cpu time    0.0011: real time    0.0011
     EDDAV:  cpu time    0.2424: real time    0.2425
       DOS:  cpu time    0.0001: real time    0.0001
    CHARGE:  cpu time    0.0285: real time    0.0285
    MIXING:  cpu time    0.0030: real time    0.0030
    --------------------------------------------
      LOOP:  cpu time    0.3958: real time    0.3959

 eigenvalue-minimisations  :   184
 total energy-change (2. order) : 0.3670333E-02  (-0.2691378E-03)
 number of electron       8.0000001 magnetization 
 augmentation part        0.2331091 magnetization 

 Broyden mixing:
  rms(total) = 0.55736E-02    rms(broyden)= 0.55731E-02
  rms(prec ) = 0.10665E-01
  weight for this iteration     100.00

 eigenvalues of (default mixing * dielectric matrix)
  average eigenvalue GAMMA=   1.9335
  3.1178  2.4846  1.7806  1.0399  1.2446

 Free energy of the ion-electron system (eV)
  ---------------------------------------------------
  alpha Z        PSCENC =         3.52063246
  Ewald energy   TEWEN  =      1501.33184723
  -Hartree energ DENC   =     -1744.78331262
  -exchange      EXHF   =         0.00000000
  -V(xc)+E(xc)   XCENC  =        28.79111764
  PAW double counting   =      1129.62617387    -1131.15625980
  entropy T*S    EENTRO =        -0.00000000
  eigenvalues    EBANDS =       -95.32304691
  atomic energy  EATOM  =       294.30057552
  Solvation  Ediel_sol  =         0.00000000
  ---------------------------------------------------
  free energy    TOTEN  =       -13.69227262 eV

  energy without entropy =      -13.69227262  energy(sigma->0) =      -13.69227262


--------------------------------------------------------------------------------------------------------




--------------------------------------- Iteration      1(  11)  ---------------------------------------


    POTLOK:  cpu time    0.1127: real time    0.1127
    SETDIJ:  cpu time    0.0010: real time    0.0010
     EDDAV:  cpu time    0.2563: real time    0.2583
       DOS:  cpu time    0.0001: real time    0.0001
    CHARGE:  cpu time    0.0252: real time    0.0252
    MIXING:  cpu time    0.0036: real time    0.0036
    --------------------------------------------
      LOOP:  cpu time    0.3990: real time    0.4010

 eigenvalue-minimisations  :   200
 total energy-change (2. order) : 0.5986294E-03  (-0.6087070E-04)
 number of electron       8.0000001 magnetization 
 augmentation part        0.2329124 magnetization 

 Broyden mixing:
  rms(total) = 0.41697E-02    rms(broyden)= 0.41694E-02
  rms(prec ) = 0.73289E-02
  weight for this iteration     100.00

 eigenvalues of (default mixing * dielectric matrix)
  average eigenvalue GAMMA=   2.3076
  4.9678  2.5009  2.5009  1.8215  1.0777  0.9770

 Free energy of the ion-electron system (eV)
  ---------------------------------------------------
  alpha Z        PSCENC =         3.52063246
  Ewald energy   TEWEN  =      1501.33184723
  -Hartree energ DENC   =     -1746.25004650
  -exchange      EXHF   =         0.00000000
  -V(xc)+E(xc)   XCENC  =        28.80550617
  PAW double counting   =      1137.04518239    -1138.57447266
  entropy T*S    EENTRO =        -0.00000000
  eigenvalues    EBANDS =       -93.87089859
  atomic energy  EATOM  =       294.30057552
  Solvation  Ediel_sol  =         0.00000000
  ---------------------------------------------------
  free energy    TOTEN  =       -13.69167399 eV

  energy without entropy =      -13.69167399  energy(sigma->0) =      -13.69167399


--------------------------------------------------------------------------------------------------------




--------------------------------------- Iteration      1(  12)  ---------------------------------------


    POTLOK:  cpu time    0.0992: real time    0.0992
    SETDIJ:  cpu time    0.0008: real time    0.0008
     EDDAV:  cpu time    0.1695: real time    0.1695
       DOS:  cpu time    0.0001: real time    0.0001
    CHARGE:  cpu time    0.0177: real time    0.0177
    MIXING:  cpu time    0.0025: real time    0.0025
    --------------------------------------------
      LOOP:  cpu time    0.2899: real time    0.2899

 eigenvalue-minimisations  :   168
 total energy-change (2. order) :-0.4048777E-03  (-0.6031528E-04)
 number of electron       8.0000001 magnetization 
 augmentation part        0.2327721 magnetization 

 Broyden mixing:
  rms(total) = 0.20028E-02    rms(broyden)= 0.20025E-02
  rms(prec ) = 0.29949E-02
  weight for this iteration     100.00

 eigenvalues of (default mixing * dielectric matrix)
  average eigenvalue GAMMA=   2.3932
  5.8291  2.5255  2.5255  1.9179  1.9179  1.0183  1.0183

 Free energy of the ion-electron system (eV)
  ---------------------------------------------------
  alpha Z        PSCENC =         3.52063246
  Ewald energy   TEWEN  =      1501.33184723
  -Hartree energ DENC   =     -1748.06631476
  -exchange      EXHF   =         0.00000000
  -V(xc)+E(xc)   XCENC  =        28.81373210
  PAW double counting   =      1132.50476900    -1134.03651999
  entropy T*S    EENTRO =        -0.00000000
  eigenvalues    EBANDS =       -92.06080044
  atomic energy  EATOM  =       294.30057552
  Solvation  Ediel_sol  =         0.00000000
  ---------------------------------------------------
  free energy    TOTEN  =       -13.69207887 eV

  energy without entropy =      -13.69207887  energy(sigma->0) =      -13.69207887


--------------------------------------------------------------------------------------------------------




--------------------------------------- Iteration      1(  13)  ---------------------------------------


    POTLOK:  cpu time    0.0894: real time    0.0895
    SETDIJ:  cpu time    0.0009: real time    0.0009
     EDDAV:  cpu time    0.1684: real time    0.1685
       DOS:  cpu time    0.0001: real time    0.0001
    CHARGE:  cpu time    0.0174: real time    0.0174
    MIXING:  cpu time    0.0024: real time    0.0024
    --------------------------------------------
      LOOP:  cpu time    0.2786: real time    0.2788

 eigenvalue-minimisations  :   176
 total energy-change (2. order) :-0.9283729E-03  (-0.1263355E-04)
 number of electron       8.0000001 magnetization 
 augmentation part        0.2327513 magnetization 

 Broyden mixing:
  rms(total) = 0.10119E-02    rms(broyden)= 0.10118E-02
  rms(prec ) = 0.15550E-02
  weight for this iteration     100.00

 eigenvalues of (default mixing * dielectric matrix)
  average eigenvalue GAMMA=   2.5403
  7.1551  3.5031  2.3457  2.3457  1.7534  1.0042  1.0042  1.2107

 Free energy of the ion-electron system (eV)
  ---------------------------------------------------
  alpha Z        PSCENC =         3.52063246
  Ewald energy   TEWEN  =      1501.33184723
  -Hartree energ DENC   =     -1748.42541925
  -exchange      EXHF   =         0.00000000
  -V(xc)+E(xc)   XCENC  =        28.81388937
  PAW double counting   =      1134.44306113    -1135.97430638
  entropy T*S    EENTRO =        -0.00000000
  eigenvalues    EBANDS =       -91.70328733
  atomic energy  EATOM  =       294.30057552
  Solvation  Ediel_sol  =         0.00000000
  ---------------------------------------------------
  free energy    TOTEN  =       -13.69300724 eV

  energy without entropy =      -13.69300724  energy(sigma->0) =      -13.69300724


--------------------------------------------------------------------------------------------------------




--------------------------------------- Iteration      1(  14)  ---------------------------------------


    POTLOK:  cpu time    0.0860: real time    0.0860
    SETDIJ:  cpu time    0.0007: real time    0.0007
     EDDAV:  cpu time    0.1656: real time    0.1656
       DOS:  cpu time    0.0001: real time    0.0001
    CHARGE:  cpu time    0.0167: real time    0.0167
    MIXING:  cpu time    0.0024: real time    0.0024
    --------------------------------------------
      LOOP:  cpu time    0.2715: real time    0.2715

 eigenvalue-minimisations  :   176
 total energy-change (2. order) :-0.5050308E-03  (-0.8063489E-05)
 number of electron       8.0000001 magnetization 
 augmentation part        0.2327792 magnetization 

 Broyden mixing:
  rms(total) = 0.65573E-03    rms(broyden)= 0.65572E-03
  rms(prec ) = 0.83553E-03
  weight for this iteration     100.00

 eigenvalues of (default mixing * dielectric matrix)
  average eigenvalue GAMMA=   2.8342
  8.2551  4.5707  3.1058  2.6079  2.1052  1.8017  1.0647  1.0038  0.9931

 Free energy of the ion-electron system (eV)
  ---------------------------------------------------
  alpha Z        PSCENC =         3.52063246
  Ewald energy   TEWEN  =      1501.33184723
  -Hartree energ DENC   =     -1748.48482623
  -exchange      EXHF   =         0.00000000
  -V(xc)+E(xc)   XCENC  =        28.81045690
  PAW double counting   =      1134.59391075    -1136.12462730
  entropy T*S    EENTRO =        -0.00000000
  eigenvalues    EBANDS =       -91.64148159
  atomic energy  EATOM  =       294.30057552
  Solvation  Ediel_sol  =         0.00000000
  ---------------------------------------------------
  free energy    TOTEN  =       -13.69351227 eV

  energy without entropy =      -13.69351227  energy(sigma->0) =      -13.69351227


--------------------------------------------------------------------------------------------------------




--------------------------------------- Iteration      1(  15)  ---------------------------------------


    POTLOK:  cpu time    0.0907: real time    0.0907
    SETDIJ:  cpu time    0.0007: real time    0.0007
     EDDAV:  cpu time    0.1506: real time    0.1506
       DOS:  cpu time    0.0001: real time    0.0001
    CHARGE:  cpu time    0.0160: real time    0.0160
    MIXING:  cpu time    0.0024: real time    0.0024
    --------------------------------------------
      LOOP:  cpu time    0.2605: real time    0.2605

 eigenvalue-minimisations  :   160
 total energy-change (2. order) :-0.2260896E-03  (-0.4089886E-05)
 number of electron       8.0000001 magnetization 
 augmentation part        0.2327740 magnetization 

 Broyden mixing:
  rms(total) = 0.29740E-03    rms(broyden)= 0.29740E-03
  rms(prec ) = 0.34697E-03
  weight for this iteration     100.00

 eigenvalues of (default mixing * dielectric matrix)
  average eigenvalue GAMMA=   2.6231
  8.2353  4.7204  2.8486  2.4652  2.1889  1.7847  1.1106  1.0117  1.0117  0.8542

 Free energy of the ion-electron system (eV)
  ---------------------------------------------------
  alpha Z        PSCENC =         3.52063246
  Ewald energy   TEWEN  =      1501.33184723
  -Hartree energ DENC   =     -1748.55999146
  -exchange      EXHF   =         0.00000000
  -V(xc)+E(xc)   XCENC  =        28.81073746
  PAW double counting   =      1133.73555406    -1135.26632411
  entropy T*S    EENTRO =        -0.00000000
  eigenvalues    EBANDS =       -91.56676952
  atomic energy  EATOM  =       294.30057552
  Solvation  Ediel_sol  =         0.00000000
  ---------------------------------------------------
  free energy    TOTEN  =       -13.69373836 eV

  energy without entropy =      -13.69373836  energy(sigma->0) =      -13.69373836


--------------------------------------------------------------------------------------------------------




--------------------------------------- Iteration      1(  16)  ---------------------------------------


    POTLOK:  cpu time    0.1560: real time    0.1560
    SETDIJ:  cpu time    0.0008: real time    0.0008
     EDDAV:  cpu time    0.2365: real time    0.2367
       DOS:  cpu time    0.0001: real time    0.0001
    --------------------------------------------
      LOOP:  cpu time    0.3935: real time    0.3936

 eigenvalue-minimisations  :   240
 total energy-change (2. order) :-0.1605333E-06  (-0.3766809E-07)
 number of electron       8.0000001 magnetization 
 augmentation part        0.2327740 magnetization 

 Free energy of the ion-electron system (eV)
  ---------------------------------------------------
  alpha Z        PSCENC =         3.52063246
  Ewald energy   TEWEN  =      1501.33184723
  -Hartree energ DENC   =     -1748.57480370
  -exchange      EXHF   =         0.00000000
  -V(xc)+E(xc)   XCENC  =        28.81091027
  PAW double counting   =      1134.09896836    -1135.62980395
  entropy T*S    EENTRO =        -0.00000000
  eigenvalues    EBANDS =       -91.55206471
  atomic energy  EATOM  =       294.30057552
  Solvation  Ediel_sol  =         0.00000000
  ---------------------------------------------------
  free energy    TOTEN  =       -13.69373852 eV

  energy without entropy =      -13.69373852  energy(sigma->0) =      -13.69373852


--------------------------------------------------------------------------------------------------------




 average (electrostatic) potential at core
  the test charge radii are     0.6991
  (the norm of the test charge is              1.0000)
       1 -57.1997       2 -57.1997
 
 
 
 E-fermi :  -1.0772     XC(G=0):  -2.3153     alpha+bet : -2.1477

 Fermi energy:        -1.0772192166

 k-point     1 :       0.1250    0.1250    0.0000
  band No.  band energies     occupation 
      1     -23.0664      2.00000
      2     -10.7519      2.00000
      3      -9.1546      2.00000
      4      -1.5409      2.00000
      5       0.9479      0.00000
      6       1.8122      0.00000
      7       1.8466      0.00000
      8       2.4352      0.00000

 k-point     2 :       0.3750    0.1250    0.0000
  band No.  band energies     occupation 
      1     -20.4549      2.00000
      2     -11.7700      2.00000
      3      -7.5182      2.00000
      4      -7.2746      2.00000
      5       3.4550      0.00000
      6       4.6342      0.00000
      7       5.5176      0.00000
      8       6.0681      0.00000

 k-point     3 :      -0.3750    0.1250    0.0000
  band No.  band energies     occupation 
      1     -16.6591      2.00000
      2     -14.4390      2.00000
      3      -9.8313      2.00000
      4      -2.1736      2.00000
      5       0.2964      0.00000
      6       2.2440      0.00000
      7      11.1186      0.00000
      8      11.1192      0.00000

 k-point     4 :      -0.1250    0.1250    0.0000
  band No.  band energies     occupation 
      1     -21.6433      2.00000
      2      -8.8525      2.00000
      3      -8.0238      2.00000
      4      -6.9475      2.00000
      5       3.0325      0.00000
      6       3.1946      0.00000
      7       3.8917      0.00000
      8       3.9568      0.00000

 k-point     5 :       0.1250    0.3750    0.0000
  band No.  band energies     occupation 
      1     -20.9195      2.00000
      2     -10.7160      2.00000
      3      -7.9779      2.00000
      4      -7.8753      2.00000
      5       4.0645      0.00000
      6       4.8315      0.00000
      7       5.1124      0.00000
      8       5.2332      0.00000

 k-point     6 :       0.3750    0.3750    0.0000
  band No.  band energies     occupation 
      1     -21.2060      2.00000
      2     -14.7881      2.00000
      3      -8.5265      2.00000
      4      -2.4632      2.00000
      5       0.4756      0.00000
      6       4.1152      0.00000
      7       5.1322      0.00000
      8       5.1819      0.00000

 k-point     7 :      -0.3750    0.3750    0.0000
  band No.  band energies     occupation 
      1     -19.1051      2.00000
      2     -14.4345      2.00000
      3      -8.3065      2.00000
      4      -5.6591      2.00000
      5       0.5435      0.00000
      6       7.4010      0.00000
      7       9.3513      0.00000
      8       9.4770      0.00000

 k-point     8 :      -0.1250    0.3750    0.0000
  band No.  band energies     occupation 
      1     -16.7326      2.00000
      2     -15.5542      2.00000
      3      -8.3650      2.00000
      4      -3.4773      2.00000
      5       0.7275      0.00000
      6       6.8383      0.00000
      7       8.9597      0.00000
      8      10.3824      0.00000


--------------------------------------------------------------------------------------------------------


 soft charge-density along one line, spin component           1
         0         1         2         3         4         5         6         7         8         9
 total charge-density along one line
 
 pseudopotential strength for first ion, spin component:           1
 10.182  13.539  -0.001   0.000  -0.003   0.002  -0.000   0.016
 13.539  18.002  -0.001   0.000  -0.004   0.003  -0.000   0.021
 -0.001  -0.001  -4.284   0.000   0.001   8.364  -0.000   0.001
  0.000   0.000   0.000  -4.271   0.000  -0.000   8.345  -0.000
 -0.003  -0.004   0.001   0.000  -4.293   0.001  -0.000   8.379
  0.002   0.003   8.364  -0.000   0.001 -18.458   0.000  -0.009
 -0.000  -0.000  -0.000   8.345  -0.000   0.000 -18.437   0.000
  0.016   0.021   0.001  -0.000   8.379  -0.009   0.000 -18.486
 total augmentation occupancy for first ion, spin component:           1
 10.151  -4.847  -0.137  -0.000  -1.154  -0.030   0.000  -0.180
 -4.847   2.413   0.096   0.000   0.640   0.018   0.000   0.097
 -0.137   0.096   2.060   0.000  -0.285   0.181   0.000  -0.002
 -0.000   0.000   0.000   1.325   0.000   0.000   0.090   0.000
 -1.154   0.640  -0.285   0.000   2.076  -0.004   0.000   0.197
 -0.030   0.018   0.181   0.000  -0.004   0.021   0.000  -0.000
  0.000   0.000   0.000   0.090   0.000   0.000   0.007   0.000
 -0.180   0.097  -0.002   0.000   0.197  -0.000   0.000   0.022


------------------------ aborting loop because EDIFF is reached ----------------------------------------


    CHARGE:  cpu time    0.0164: real time    0.0164
    FORLOC:  cpu time    0.0027: real time    0.0027
    FORNL :  cpu time    0.0072: real time    0.0072
    STRESS:  cpu time    0.0762: real time    0.0762
    FORCOR:  cpu time    0.0890: real time    0.0890
    FORHAR:  cpu time    0.0218: real time    0.0218
    MIXING:  cpu time    0.0029: real time    0.0029
    OFIELD:  cpu time    0.0000: real time    0.0000

 ---------------------------------------------------------------------------------------------

         DFTD3 V3.0 Rev 1        
 IVDW         = 12
 DF pbe       
 parameters
 VDW_S6       =    1.0000
 VDW_S8       =    0.7875
 VDW_A1       =    0.4289
 VDW_A2       =    4.4407
 k1-k3        =   16.0000    1.3333   -4.0000
 VDW_RADIUS   =   50.2022 A
 VDW_CNRADIUS =   21.1671 A
 Edisp (eV)   -0.15154

 E6    (eV) :    -0.1040
 E8    (eV) :    -0.0475
 % E8        : 31.37
    FORVDW:  cpu time    0.0043: real time    0.0043

  FORCE on cell =-STRESS in cart. coord.  units (eV):
  Direction    XX          YY          ZZ          XY          YZ          ZX
  --------------------------------------------------------------------------------------
  Alpha Z     3.52063     3.52063     3.52063
  Ewald    1782.37919  1787.02218 -2068.06956   -23.10403    -0.00000    -0.00000
  Hartree  1731.81638  1739.60702 -1722.80128    -5.66418    -0.00000    -0.00000
  E(xc)     -30.97363   -30.97914   -32.15650     0.04948    -0.00000     0.00000
  Local   -3592.58407 -3609.37798  3684.53849    24.40448     0.00000     0.00000
  n-local    -9.09431   -10.41705    -8.24036     2.90659    -0.00000     0.00000
  augment    -1.13376    -1.04588    -0.89234     0.06134    -0.00000    -0.00000
  Kinetic   126.10840   142.21198   144.05512   -19.58600     0.00000    -0.00000
  Fock        0.00000     0.00000     0.00000     0.00000     0.00000     0.00000
  vdW        -0.15584    -0.15620    -0.00039     0.00128     0.00000    -0.00000
  -------------------------------------------------------------------------------------
  Total       9.88300    20.38556    -0.04619   -20.93105     0.00000     0.00000
  in kB     169.65620   349.94811    -0.79291  -359.31223     0.00000     0.00000
  external pressure =      172.94 kB  Pullay stress =        0.00 kB


 VOLUME and BASIS-vectors are now :
 -----------------------------------------------------------------------------
  energy-cutoff  :      600.00
  volume of cell :       93.33
      direct lattice vectors                 reciprocal lattice vectors
     2.466000000  0.363055170  0.000000000     0.457640226 -0.354053068  0.000000000
     1.652220000  2.135618646  0.000000000    -0.077798838  0.528437415  0.000000000
     0.000000000  0.000000000 20.000000000     0.000000000  0.000000000  0.050000000

  length of vectors
     2.492582006  2.700129243 20.000000000     0.578608807  0.534133655  0.050000000


 FORCES acting on ions
    electron-ion (+dipol)            ewald-force                    non-local-force                 convergence-correction
 -----------------------------------------------------------------------------------------------
   -.779E+02 -.138E+02 -.635E-08   0.863E+02 0.137E+02 0.346E-20   0.223E+00 -.137E+01 0.331E-23   -.387E-03 0.176E-03 0.570E-13
   0.779E+02 0.138E+02 0.635E-08   -.863E+02 -.137E+02 -.243E-20   -.223E+00 0.137E+01 0.331E-23   0.387E-03 -.176E-03 0.556E-13
 -----------------------------------------------------------------------------------------------
   0.107E-13 0.571E-13 -.563E-11   0.000E+00 -.355E-14 0.103E-20   -.278E-16 0.000E+00 0.662E-23   -.620E-15 -.117E-14 0.113E-12
 
 
 POSITION                                       TOTAL-FORCE (eV/Angst)
 -----------------------------------------------------------------------------------
      1.37274      0.83289     10.00000         8.637951     -1.468669      0.000000
      2.74548      1.66578     10.00000        -8.637951      1.468669      0.000000
 -----------------------------------------------------------------------------------
    total drift:                                0.000000      0.000000     -0.000000


--------------------------------------------------------------------------------------------------------



  FREE ENERGIE OF THE ION-ELECTRON SYSTEM (eV)
  ---------------------------------------------------
  free  energy   TOTEN  =       -13.84527951 eV

  energy  without entropy=      -13.84527951  energy(sigma->0) =      -13.84527951
 


--------------------------------------------------------------------------------------------------------


    POTLOK:  cpu time    0.1031: real time    0.1031


--------------------------------------------------------------------------------------------------------




--------------------------------------------------------------------------------------------------------


    WAVPRE:  cpu time    0.0185: real time    0.0185
    FEWALD:  cpu time    0.0007: real time    0.0007
    ORTHCH:  cpu time    0.0021: real time    0.0021
     LOOP+:  cpu time    5.1958: real time    5.1996


--------------------------------------- Iteration      2(   1)  ---------------------------------------


    POTLOK:  cpu time    0.0947: real time    0.0947
    SETDIJ:  cpu time    0.0008: real time    0.0008
     EDDAV:  cpu time    0.1640: real time    0.1640
       DOS:  cpu time    0.0001: real time    0.0001
    CHARGE:  cpu time    0.0200: real time    0.0200
    MIXING:  cpu time    0.0033: real time    0.0033
    --------------------------------------------
      LOOP:  cpu time    0.2830: real time    0.2831

 eigenvalue-minimisations  :   144
 total energy-change (2. order) : 0.1251540E+01  (-0.9082016E+02)
 number of electron       8.0000001 magnetization 
 augmentation part        0.1858872 magnetization 

 Broyden mixing:
  rms(total) = 0.96534E+00    rms(broyden)= 0.96529E+00
  rms(prec ) = 0.10304E+01
  weight for this iteration     100.00

 Free energy of the ion-electron system (eV)
  ---------------------------------------------------
  alpha Z        PSCENC =         3.52063246
  Ewald energy   TEWEN  =      1498.76538190
  -Hartree energ DENC   =     -1738.44994021
  -exchange      EXHF   =         0.00000000
  -V(xc)+E(xc)   XCENC  =        28.15088881
  PAW double counting   =      1134.09225480    -1135.62313620
  entropy T*S    EENTRO =        -0.01497414
  eigenvalues    EBANDS =       -97.18388092
  atomic energy  EATOM  =       294.30057552
  Solvation  Ediel_sol  =         0.00000000
  ---------------------------------------------------
  free energy    TOTEN  =       -12.44219798 eV

  energy without entropy =      -12.42722384  energy(sigma->0) =      -12.43471091


--------------------------------------------------------------------------------------------------------




--------------------------------------- Iteration      2(   2)  ---------------------------------------


    POTLOK:  cpu time    0.0986: real time    0.0987
    SETDIJ:  cpu time    0.0010: real time    0.0010
     EDDAV:  cpu time    0.1901: real time    0.1901
       DOS:  cpu time    0.0001: real time    0.0001
    CHARGE:  cpu time    0.0237: real time    0.0237
    MIXING:  cpu time    0.0027: real time    0.0027
    --------------------------------------------
      LOOP:  cpu time    0.3161: real time    0.3162

 eigenvalue-minimisations  :   160
 total energy-change (2. order) : 0.1000456E+01  (-0.1589180E+01)
 number of electron       8.0000001 magnetization 
 augmentation part        0.2258796 magnetization 

 Broyden mixing:
  rms(total) = 0.60375E+00    rms(broyden)= 0.60374E+00
  rms(prec ) = 0.64238E+00
  weight for this iteration     100.00

 eigenvalues of (default mixing * dielectric matrix)
  average eigenvalue GAMMA=   1.1187
  1.1187

 Free energy of the ion-electron system (eV)
  ---------------------------------------------------
  alpha Z        PSCENC =         3.52063246
  Ewald energy   TEWEN  =      1498.76538190
  -Hartree energ DENC   =     -1736.82367640
  -exchange      EXHF   =         0.00000000
  -V(xc)+E(xc)   XCENC  =        28.16616366
  PAW double counting   =      1239.07938794    -1240.53920825
  entropy T*S    EENTRO =        -0.01476870
  eigenvalues    EBANDS =       -97.89622970
  atomic energy  EATOM  =       294.30057552
  Solvation  Ediel_sol  =         0.00000000
  ---------------------------------------------------
  free energy    TOTEN  =       -11.44174156 eV

  energy without entropy =      -11.42697286  energy(sigma->0) =      -11.43435721


--------------------------------------------------------------------------------------------------------




--------------------------------------- Iteration      2(   3)  ---------------------------------------


    POTLOK:  cpu time    0.1071: real time    0.1071
    SETDIJ:  cpu time    0.0010: real time    0.0010
     EDDAV:  cpu time    0.2057: real time    0.2057
       DOS:  cpu time    0.0001: real time    0.0001
    CHARGE:  cpu time    0.0244: real time    0.0244
    MIXING:  cpu time    0.0028: real time    0.0028
    --------------------------------------------
      LOOP:  cpu time    0.3412: real time    0.3412

 eigenvalue-minimisations  :   168
 total energy-change (2. order) : 0.7351007E+00  (-0.2561599E+00)
 number of electron       8.0000001 magnetization 
 augmentation part        0.2048937 magnetization 

 Broyden mixing:
  rms(total) = 0.26044E+00    rms(broyden)= 0.26037E+00
  rms(prec ) = 0.27520E+00
  weight for this iteration     100.00

 eigenvalues of (default mixing * dielectric matrix)
  average eigenvalue GAMMA=   1.1741
  0.8357  1.5125

 Free energy of the ion-electron system (eV)
  ---------------------------------------------------
  alpha Z        PSCENC =         3.52063246
  Ewald energy   TEWEN  =      1498.76538190
  -Hartree energ DENC   =     -1741.35891800
  -exchange      EXHF   =         0.00000000
  -V(xc)+E(xc)   XCENC  =        28.43260874
  PAW double counting   =      1131.44278270    -1132.96736842
  entropy T*S    EENTRO =        -0.00085658
  eigenvalues    EBANDS =       -92.84147919
  atomic energy  EATOM  =       294.30057552
  Solvation  Ediel_sol  =         0.00000000
  ---------------------------------------------------
  free energy    TOTEN  =       -10.70664086 eV

  energy without entropy =      -10.70578428  energy(sigma->0) =      -10.70621257


--------------------------------------------------------------------------------------------------------




--------------------------------------- Iteration      2(   4)  ---------------------------------------


    POTLOK:  cpu time    0.1076: real time    0.1076
    SETDIJ:  cpu time    0.0011: real time    0.0011
     EDDAV:  cpu time    0.2164: real time    0.2164
       DOS:  cpu time    0.0001: real time    0.0001
    CHARGE:  cpu time    0.0242: real time    0.0243
    MIXING:  cpu time    0.0028: real time    0.0028
    --------------------------------------------
      LOOP:  cpu time    0.3522: real time    0.3523

 eigenvalue-minimisations  :   176
 total energy-change (2. order) : 0.7928935E-01  (-0.1804736E-01)
 number of electron       8.0000001 magnetization 
 augmentation part        0.1999930 magnetization 

 Broyden mixing:
  rms(total) = 0.13065E+00    rms(broyden)= 0.13064E+00
  rms(prec ) = 0.13765E+00
  weight for this iteration     100.00

 eigenvalues of (default mixing * dielectric matrix)
  average eigenvalue GAMMA=   1.4192
  0.9165  1.2412  2.0999

 Free energy of the ion-electron system (eV)
  ---------------------------------------------------
  alpha Z        PSCENC =         3.52063246
  Ewald energy   TEWEN  =      1498.76538190
  -Hartree energ DENC   =     -1739.13411626
  -exchange      EXHF   =         0.00000000
  -V(xc)+E(xc)   XCENC  =        28.41341381
  PAW double counting   =      1063.15787508    -1064.66729518
  entropy T*S    EENTRO =        -0.00929899
  eigenvalues    EBANDS =       -94.97451985
  atomic energy  EATOM  =       294.30057552
  Solvation  Ediel_sol  =         0.00000000
  ---------------------------------------------------
  free energy    TOTEN  =       -10.62735152 eV

  energy without entropy =      -10.61805252  energy(sigma->0) =      -10.62270202


--------------------------------------------------------------------------------------------------------




--------------------------------------- Iteration      2(   5)  ---------------------------------------


    POTLOK:  cpu time    0.1060: real time    0.1060
    SETDIJ:  cpu time    0.0011: real time    0.0011
     EDDAV:  cpu time    0.2468: real time    0.2468
       DOS:  cpu time    0.0001: real time    0.0001
    CHARGE:  cpu time    0.0243: real time    0.0243
    MIXING:  cpu time    0.0029: real time    0.0029
    --------------------------------------------
      LOOP:  cpu time    0.3812: real time    0.3812

 eigenvalue-minimisations  :   208
 total energy-change (2. order) : 0.1301961E-01  (-0.4709310E-02)
 number of electron       8.0000001 magnetization 
 augmentation part        0.1932969 magnetization 

 Broyden mixing:
  rms(total) = 0.37933E-01    rms(broyden)= 0.37921E-01
  rms(prec ) = 0.39559E-01
  weight for this iteration     100.00

 eigenvalues of (default mixing * dielectric matrix)
  average eigenvalue GAMMA=   1.4964
  2.0120  2.0120  0.9807  0.9807

 Free energy of the ion-electron system (eV)
  ---------------------------------------------------
  alpha Z        PSCENC =         3.52063246
  Ewald energy   TEWEN  =      1498.76538190
  -Hartree energ DENC   =     -1736.40104880
  -exchange      EXHF   =         0.00000000
  -V(xc)+E(xc)   XCENC  =        28.36338943
  PAW double counting   =      1010.27077575    -1011.75340298
  entropy T*S    EENTRO =        -0.01923314
  eigenvalues    EBANDS =       -97.66140205
  atomic energy  EATOM  =       294.30057552
  Solvation  Ediel_sol  =         0.00000000
  ---------------------------------------------------
  free energy    TOTEN  =       -10.61433191 eV

  energy without entropy =      -10.59509876  energy(sigma->0) =      -10.60471533


--------------------------------------------------------------------------------------------------------




--------------------------------------- Iteration      2(   6)  ---------------------------------------


    POTLOK:  cpu time    0.1057: real time    0.1057
    SETDIJ:  cpu time    0.0011: real time    0.0011
     EDDAV:  cpu time    0.2346: real time    0.2346
       DOS:  cpu time    0.0001: real time    0.0001
    CHARGE:  cpu time    0.0320: real time    0.0320
    MIXING:  cpu time    0.0042: real time    0.0042
    --------------------------------------------
      LOOP:  cpu time    0.3777: real time    0.3777

 eigenvalue-minimisations  :   168
 total energy-change (2. order) :-0.1729064E-03  (-0.6018988E-03)
 number of electron       8.0000001 magnetization 
 augmentation part        0.1961404 magnetization 

 Broyden mixing:
  rms(total) = 0.17610E-01    rms(broyden)= 0.17610E-01
  rms(prec ) = 0.18834E-01
  weight for this iteration     100.00

 eigenvalues of (default mixing * dielectric matrix)
  average eigenvalue GAMMA=   1.4770
  2.6626  1.5858  1.2450  0.9459  0.9459

 Free energy of the ion-electron system (eV)
  ---------------------------------------------------
  alpha Z        PSCENC =         3.52063246
  Ewald energy   TEWEN  =      1498.76538190
  -Hartree energ DENC   =     -1736.27085293
  -exchange      EXHF   =         0.00000000
  -V(xc)+E(xc)   XCENC  =        28.36039731
  PAW double counting   =      1004.87266595    -1006.35160978
  entropy T*S    EENTRO =        -0.01937649
  eigenvalues    EBANDS =       -97.79231876
  atomic energy  EATOM  =       294.30057552
  Solvation  Ediel_sol  =         0.00000000
  ---------------------------------------------------
  free energy    TOTEN  =       -10.61450481 eV

  energy without entropy =      -10.59512832  energy(sigma->0) =      -10.60481657


--------------------------------------------------------------------------------------------------------




--------------------------------------- Iteration      2(   7)  ---------------------------------------


    POTLOK:  cpu time    0.1084: real time    0.1085
    SETDIJ:  cpu time    0.0009: real time    0.0009
     EDDAV:  cpu time    0.2051: real time    0.2052
       DOS:  cpu time    0.0001: real time    0.0001
    CHARGE:  cpu time    0.0193: real time    0.0193
    MIXING:  cpu time    0.0023: real time    0.0023
    --------------------------------------------
      LOOP:  cpu time    0.3362: real time    0.3364

 eigenvalue-minimisations  :   200
 total energy-change (2. order) :-0.1237201E-04  (-0.1246342E-03)
 number of electron       8.0000001 magnetization 
 augmentation part        0.1951566 magnetization 

 Broyden mixing:
  rms(total) = 0.62994E-02    rms(broyden)= 0.62987E-02
  rms(prec ) = 0.70982E-02
  weight for this iteration     100.00

 eigenvalues of (default mixing * dielectric matrix)
  average eigenvalue GAMMA=   1.3478
  2.6001  1.5068  1.5068  0.9149  0.9149  0.6435

 Free energy of the ion-electron system (eV)
  ---------------------------------------------------
  alpha Z        PSCENC =         3.52063246
  Ewald energy   TEWEN  =      1498.76538190
  -Hartree energ DENC   =     -1735.92159016
  -exchange      EXHF   =         0.00000000
  -V(xc)+E(xc)   XCENC  =        28.36386125
  PAW double counting   =       995.70898011     -997.18671198
  entropy T*S    EENTRO =        -0.01961187
  eigenvalues    EBANDS =       -98.14603442
  atomic energy  EATOM  =       294.30057552
  Solvation  Ediel_sol  =         0.00000000
  ---------------------------------------------------
  free energy    TOTEN  =       -10.61451718 eV

  energy without entropy =      -10.59490531  energy(sigma->0) =      -10.60471125


--------------------------------------------------------------------------------------------------------




--------------------------------------- Iteration      2(   8)  ---------------------------------------


    POTLOK:  cpu time    0.0867: real time    0.0867
    SETDIJ:  cpu time    0.0008: real time    0.0008
     EDDAV:  cpu time    0.1669: real time    0.1669
       DOS:  cpu time    0.0001: real time    0.0001
    CHARGE:  cpu time    0.0180: real time    0.0180
    MIXING:  cpu time    0.0025: real time    0.0025
    --------------------------------------------
      LOOP:  cpu time    0.2749: real time    0.2750

 eigenvalue-minimisations  :   168
 total energy-change (2. order) :-0.5430969E-04  (-0.1866400E-04)
 number of electron       8.0000001 magnetization 
 augmentation part        0.1951639 magnetization 

 Broyden mixing:
  rms(total) = 0.29199E-02    rms(broyden)= 0.29195E-02
  rms(prec ) = 0.38741E-02
  weight for this iteration     100.00

 eigenvalues of (default mixing * dielectric matrix)
  average eigenvalue GAMMA=   1.5409
  2.7338  2.2459  1.6159  0.8746  0.8746  1.2209  1.2209

 Free energy of the ion-electron system (eV)
  ---------------------------------------------------
  alpha Z        PSCENC =         3.52063246
  Ewald energy   TEWEN  =      1498.76538190
  -Hartree energ DENC   =     -1735.90630032
  -exchange      EXHF   =         0.00000000
  -V(xc)+E(xc)   XCENC  =        28.36633250
  PAW double counting   =       998.07186795     -999.55087979
  entropy T*S    EENTRO =        -0.01887422
  eigenvalues    EBANDS =       -98.16330750
  atomic energy  EATOM  =       294.30057552
  Solvation  Ediel_sol  =         0.00000000
  ---------------------------------------------------
  free energy    TOTEN  =       -10.61457149 eV

  energy without entropy =      -10.59569727  energy(sigma->0) =      -10.60513438


--------------------------------------------------------------------------------------------------------




--------------------------------------- Iteration      2(   9)  ---------------------------------------


    POTLOK:  cpu time    0.0847: real time    0.0847
    SETDIJ:  cpu time    0.0009: real time    0.0009
     EDDAV:  cpu time    0.1594: real time    0.1594
       DOS:  cpu time    0.0001: real time    0.0001
    CHARGE:  cpu time    0.0186: real time    0.0186
    MIXING:  cpu time    0.0024: real time    0.0024
    --------------------------------------------
      LOOP:  cpu time    0.2660: real time    0.2660

 eigenvalue-minimisations  :   160
 total energy-change (2. order) :-0.1306410E-03  (-0.1010494E-04)
 number of electron       8.0000001 magnetization 
 augmentation part        0.1951650 magnetization 

 Broyden mixing:
  rms(total) = 0.21070E-02    rms(broyden)= 0.21070E-02
  rms(prec ) = 0.26152E-02
  weight for this iteration     100.00

 eigenvalues of (default mixing * dielectric matrix)
  average eigenvalue GAMMA=   1.5089
  2.8551  2.5558  1.5160  1.3875  0.9850  0.9850  0.8935  0.8935

 Free energy of the ion-electron system (eV)
  ---------------------------------------------------
  alpha Z        PSCENC =         3.52063246
  Ewald energy   TEWEN  =      1498.76538190
  -Hartree energ DENC   =     -1735.46392210
  -exchange      EXHF   =         0.00000000
  -V(xc)+E(xc)   XCENC  =        28.36188491
  PAW double counting   =      1002.11357631    -1003.59224194
  entropy T*S    EENTRO =        -0.01890819
  eigenvalues    EBANDS =       -98.60168101
  atomic energy  EATOM  =       294.30057552
  Solvation  Ediel_sol  =         0.00000000
  ---------------------------------------------------
  free energy    TOTEN  =       -10.61470214 eV

  energy without entropy =      -10.59579395  energy(sigma->0) =      -10.60524804


--------------------------------------------------------------------------------------------------------




--------------------------------------- Iteration      2(  10)  ---------------------------------------


    POTLOK:  cpu time    0.0862: real time    0.0862
    SETDIJ:  cpu time    0.0007: real time    0.0007
     EDDAV:  cpu time    0.1869: real time    0.1870
       DOS:  cpu time    0.0001: real time    0.0001
    CHARGE:  cpu time    0.0178: real time    0.0178
    MIXING:  cpu time    0.0024: real time    0.0024
    --------------------------------------------
      LOOP:  cpu time    0.2942: real time    0.2942

 eigenvalue-minimisations  :   200
 total energy-change (2. order) :-0.1323018E-04  (-0.1080285E-05)
 number of electron       8.0000001 magnetization 
 augmentation part        0.1951250 magnetization 

 Broyden mixing:
  rms(total) = 0.16296E-02    rms(broyden)= 0.16296E-02
  rms(prec ) = 0.19737E-02
  weight for this iteration     100.00

 eigenvalues of (default mixing * dielectric matrix)
  average eigenvalue GAMMA=   1.8856
  5.2248  2.6588  2.2284  1.5303  1.5303  1.0458  0.9849  0.8836  0.8836

 Free energy of the ion-electron system (eV)
  ---------------------------------------------------
  alpha Z        PSCENC =         3.52063246
  Ewald energy   TEWEN  =      1498.76538190
  -Hartree energ DENC   =     -1735.32654605
  -exchange      EXHF   =         0.00000000
  -V(xc)+E(xc)   XCENC  =        28.36037499
  PAW double counting   =      1002.25860700    -1003.73720575
  entropy T*S    EENTRO =        -0.01903072
  eigenvalues    EBANDS =       -98.73750473
  atomic energy  EATOM  =       294.30057552
  Solvation  Ediel_sol  =         0.00000000
  ---------------------------------------------------
  free energy    TOTEN  =       -10.61471537 eV

  energy without entropy =      -10.59568465  energy(sigma->0) =      -10.60520001


--------------------------------------------------------------------------------------------------------




--------------------------------------- Iteration      2(  11)  ---------------------------------------


    POTLOK:  cpu time    0.0842: real time    0.0842
    SETDIJ:  cpu time    0.0007: real time    0.0007
     EDDAV:  cpu time    0.1815: real time    0.1815
       DOS:  cpu time    0.0002: real time    0.0002
    CHARGE:  cpu time    0.0273: real time    0.0282
[...]
  free energy    TOTEN  =       -14.51298436 eV

  energy without entropy =      -14.51287709  energy(sigma->0) =      -14.51293073


--------------------------------------------------------------------------------------------------------




--------------------------------------- Iteration     12(   6)  ---------------------------------------


    POTLOK:  cpu time    0.0846: real time    0.0846
    SETDIJ:  cpu time    0.0007: real time    0.0007
     EDDAV:  cpu time    0.1822: real time    0.1822
       DOS:  cpu time    0.0001: real time    0.0001
    CHARGE:  cpu time    0.0166: real time    0.0166
    MIXING:  cpu time    0.0023: real time    0.0023
    --------------------------------------------
      LOOP:  cpu time    0.2865: real time    0.2865

 eigenvalue-minimisations  :   192
 total energy-change (2. order) :-0.2173125E-05  (-0.3720729E-06)
 number of electron       8.0000001 magnetization 
 augmentation part        0.2005723 magnetization 

 Broyden mixing:
  rms(total) = 0.17660E-03    rms(broyden)= 0.17659E-03
  rms(prec ) = 0.20961E-03
  weight for this iteration     100.00

 eigenvalues of (default mixing * dielectric matrix)
  average eigenvalue GAMMA=   1.7288
  2.5004  2.1501  1.7966  0.9760  1.2211

 Free energy of the ion-electron system (eV)
  ---------------------------------------------------
  alpha Z        PSCENC =         3.52063246
  Ewald energy   TEWEN  =      1488.78045010
  -Hartree energ DENC   =     -1727.01493960
  -exchange      EXHF   =         0.00000000
  -V(xc)+E(xc)   XCENC  =        28.00185955
  PAW double counting   =       872.28748573     -873.68426626
  entropy T*S    EENTRO =        -0.00010846
  eigenvalues    EBANDS =      -100.70467557
  atomic energy  EATOM  =       294.30057552
  Solvation  Ediel_sol  =         0.00000000
  ---------------------------------------------------
  free energy    TOTEN  =       -14.51298654 eV

  energy without entropy =      -14.51287808  energy(sigma->0) =      -14.51293231


--------------------------------------------------------------------------------------------------------




--------------------------------------- Iteration     12(   7)  ---------------------------------------


    POTLOK:  cpu time    0.1130: real time    0.1131
    SETDIJ:  cpu time    0.0007: real time    0.0007
     EDDAV:  cpu time    0.1569: real time    0.1570
       DOS:  cpu time    0.0001: real time    0.0001
    CHARGE:  cpu time    0.0169: real time    0.0169
    MIXING:  cpu time    0.0022: real time    0.0022
    --------------------------------------------
      LOOP:  cpu time    0.2899: real time    0.2900

 eigenvalue-minimisations  :   160
 total energy-change (2. order) :-0.2453725E-05  (-0.4804649E-07)
 number of electron       8.0000001 magnetization 
 augmentation part        0.2005741 magnetization 

 Broyden mixing:
  rms(total) = 0.44140E-04    rms(broyden)= 0.44140E-04
  rms(prec ) = 0.85160E-04
  weight for this iteration     100.00

 eigenvalues of (default mixing * dielectric matrix)
  average eigenvalue GAMMA=   1.6798
  2.5887  2.1617  1.5999  1.5999  1.0027  1.1258

 Free energy of the ion-electron system (eV)
  ---------------------------------------------------
  alpha Z        PSCENC =         3.52063246
  Ewald energy   TEWEN  =      1488.78045010
  -Hartree energ DENC   =     -1727.00273730
  -exchange      EXHF   =         0.00000000
  -V(xc)+E(xc)   XCENC  =        28.00176509
  PAW double counting   =       872.39584257     -873.79263650
  entropy T*S    EENTRO =        -0.00010828
  eigenvalues    EBANDS =      -100.71677265
  atomic energy  EATOM  =       294.30057552
  Solvation  Ediel_sol  =         0.00000000
  ---------------------------------------------------
  free energy    TOTEN  =       -14.51298899 eV

  energy without entropy =      -14.51288070  energy(sigma->0) =      -14.51293485


--------------------------------------------------------------------------------------------------------




--------------------------------------- Iteration     12(   8)  ---------------------------------------


    POTLOK:  cpu time    0.0852: real time    0.0852
    SETDIJ:  cpu time    0.0008: real time    0.0008
     EDDAV:  cpu time    0.1771: real time    0.1771
       DOS:  cpu time    0.0001: real time    0.0001
    CHARGE:  cpu time    0.0178: real time    0.0178
    MIXING:  cpu time    0.0023: real time    0.0023
    --------------------------------------------
      LOOP:  cpu time    0.2833: real time    0.2833

 eigenvalue-minimisations  :   184
 total energy-change (2. order) :-0.1118453E-05  (-0.6371922E-08)
 number of electron       8.0000001 magnetization 
 augmentation part        0.2005743 magnetization 

 Broyden mixing:
  rms(total) = 0.29329E-04    rms(broyden)= 0.29329E-04
  rms(prec ) = 0.64333E-04
  weight for this iteration     100.00

 eigenvalues of (default mixing * dielectric matrix)
  average eigenvalue GAMMA=   1.8632
  3.3965  2.5076  2.0963  1.5793  0.9938  1.1029  1.3663

 Free energy of the ion-electron system (eV)
  ---------------------------------------------------
  alpha Z        PSCENC =         3.52063246
  Ewald energy   TEWEN  =      1488.78045010
  -Hartree energ DENC   =     -1726.99613653
  -exchange      EXHF   =         0.00000000
  -V(xc)+E(xc)   XCENC  =        28.00169620
  PAW double counting   =       872.41358018     -873.81037561
  entropy T*S    EENTRO =        -0.00010846
  eigenvalues    EBANDS =      -100.72330397
  atomic energy  EATOM  =       294.30057552
  Solvation  Ediel_sol  =         0.00000000
  ---------------------------------------------------
  free energy    TOTEN  =       -14.51299011 eV

  energy without entropy =      -14.51288164  energy(sigma->0) =      -14.51293588


--------------------------------------------------------------------------------------------------------




--------------------------------------- Iteration     12(   9)  ---------------------------------------


    POTLOK:  cpu time    0.0900: real time    0.0901
    SETDIJ:  cpu time    0.0007: real time    0.0007
     EDDAV:  cpu time    0.1514: real time    0.1514
       DOS:  cpu time    0.0001: real time    0.0001
    CHARGE:  cpu time    0.0170: real time    0.0170
    MIXING:  cpu time    0.0028: real time    0.0028
    --------------------------------------------
      LOOP:  cpu time    0.2620: real time    0.2621

 eigenvalue-minimisations  :   152
 total energy-change (2. order) :-0.2082772E-05  (-0.2964701E-07)
 number of electron       8.0000001 magnetization 
 augmentation part        0.2005759 magnetization 

 Broyden mixing:
  rms(total) = 0.32318E-04    rms(broyden)= 0.32317E-04
  rms(prec ) = 0.39578E-04
  weight for this iteration     100.00

 eigenvalues of (default mixing * dielectric matrix)
  average eigenvalue GAMMA=   1.8787
  3.6534  2.6337  2.0786  1.7439  1.7439  0.9865  1.0058  1.1838

 Free energy of the ion-electron system (eV)
  ---------------------------------------------------
  alpha Z        PSCENC =         3.52063246
  Ewald energy   TEWEN  =      1488.78045010
  -Hartree energ DENC   =     -1726.97964416
  -exchange      EXHF   =         0.00000000
  -V(xc)+E(xc)   XCENC  =        28.00154948
  PAW double counting   =       872.43867956     -873.83548211
  entropy T*S    EENTRO =        -0.00010862
  eigenvalues    EBANDS =      -100.73964442
  atomic energy  EATOM  =       294.30057552
  Solvation  Ediel_sol  =         0.00000000
  ---------------------------------------------------
  free energy    TOTEN  =       -14.51299219 eV

  energy without entropy =      -14.51288357  energy(sigma->0) =      -14.51293788


--------------------------------------------------------------------------------------------------------




--------------------------------------- Iteration     12(  10)  ---------------------------------------


    POTLOK:  cpu time    0.0870: real time    0.0870
    SETDIJ:  cpu time    0.0007: real time    0.0007
     EDDAV:  cpu time    0.1661: real time    0.1661
       DOS:  cpu time    0.0001: real time    0.0001
    --------------------------------------------
      LOOP:  cpu time    0.2539: real time    0.2539

 eigenvalue-minimisations  :   168
 total energy-change (2. order) :-0.3849594E-06  (-0.2247899E-08)
 number of electron       8.0000001 magnetization 
 augmentation part        0.2005759 magnetization 

 Free energy of the ion-electron system (eV)
  ---------------------------------------------------
  alpha Z        PSCENC =         3.52063246
  Ewald energy   TEWEN  =      1488.78045010
  -Hartree energ DENC   =     -1726.97582591
  -exchange      EXHF   =         0.00000000
  -V(xc)+E(xc)   XCENC  =        28.00153296
  PAW double counting   =       872.42694071     -873.82374628
  entropy T*S    EENTRO =        -0.00010867
  eigenvalues    EBANDS =      -100.74344347
  atomic energy  EATOM  =       294.30057552
  Solvation  Ediel_sol  =         0.00000000
  ---------------------------------------------------
  free energy    TOTEN  =       -14.51299258 eV

  energy without entropy =      -14.51288391  energy(sigma->0) =      -14.51293824


--------------------------------------------------------------------------------------------------------




 average (electrostatic) potential at core
  the test charge radii are     0.6991
  (the norm of the test charge is              1.0000)
       1 -59.2428       2 -59.2428
 
 
 
 E-fermi :  -1.8641     XC(G=0):  -2.2598     alpha+bet : -2.1477

 Fermi energy:        -1.8641014679

 k-point     1 :       0.1250    0.1250    0.0000
  band No.  band energies     occupation 
      1     -24.3668      2.00000
      2     -12.6771      2.00000
      3     -11.3830      2.00000
      4       0.2145      0.00000
      5       0.9857      0.00000
      6       1.9472      0.00000
      7       2.2713      0.00000
      8       3.2127      0.00000

 k-point     2 :       0.3750    0.1250    0.0000
  band No.  band energies     occupation 
      1     -21.4648      2.00000
      2     -14.4699      2.00000
      3      -7.7904      2.00000
      4      -7.1336      2.00000
      5       1.5324      0.00000
      6       2.2624      0.00000
      7       5.0739      0.00000
      8       6.0792      0.00000

 k-point     3 :      -0.3750    0.1250    0.0000
  band No.  band energies     occupation 
      1     -17.1863      2.00000
      2     -14.1074      2.00000
      3     -13.3721      2.00000
      4      -3.7458      2.00000
      5      -0.9855      0.00000
      6       0.5070      0.00000
      7       9.7061      0.00000
      8      11.1186      0.00000

 k-point     4 :      -0.1250    0.1250    0.0000
  band No.  band energies     occupation 
      1     -22.8231      2.00000
      2     -10.9453      2.00000
      3      -9.6342      2.00000
      4      -6.4904      2.00000
      5       1.7693      0.00000
      6       3.1132      0.00000
      7       3.9943      0.00000
      8       4.3643      0.00000

 k-point     5 :       0.1250    0.3750    0.0000
  band No.  band energies     occupation 
      1     -22.0425      2.00000
      2     -12.9189      2.00000
      3      -8.6147      2.00000
      4      -8.5780      2.00000
      5       3.0309      0.00000
      6       4.0918      0.00000
      7       5.1502      0.00000
      8       5.5320      0.00000

 k-point     6 :       0.3750    0.3750    0.0000
  band No.  band energies     occupation 
      1     -22.2429      2.00000
      2     -17.5877      2.00000
      3      -8.5210      2.00000
      4      -2.0847      1.99819
      5      -1.6435      0.00181
      6       4.0894      0.00000
      7       5.2204      0.00000
      8       5.5455      0.00000

 k-point     7 :      -0.3750    0.3750    0.0000
  band No.  band energies     occupation 
      1     -19.5454      2.00000
      2     -17.3379      2.00000
      3      -8.7187      2.00000
      4      -5.1075      2.00000
      5      -2.6792      2.00000
      6       6.7344      0.00000
      7       9.2508      0.00000
      8       9.3948      0.00000

 k-point     8 :      -0.1250    0.3750    0.0000
  band No.  band energies     occupation 
      1     -17.4406      2.00000
      2     -16.0440      2.00000
      3     -11.0606      2.00000
      4      -4.8597      2.00000
      5       0.6873      0.00000
      6       3.3744      0.00000
      7       7.6657      0.00000
      8      10.2231      0.00000


--------------------------------------------------------------------------------------------------------


 soft charge-density along one line, spin component           1
         0         1         2         3         4         5         6         7         8         9
 total charge-density along one line
 
 pseudopotential strength for first ion, spin component:           1
 10.288  13.682  -0.002  -0.000  -0.002   0.006   0.000   0.008
 13.682  18.196  -0.003  -0.000  -0.003   0.007   0.000   0.011
 -0.002  -0.003  -4.409  -0.000  -0.001   8.624   0.000   0.000
 -0.000  -0.000  -0.000  -4.377   0.000   0.000   8.565  -0.000
 -0.002  -0.003  -0.001   0.000  -4.412   0.000  -0.000   8.625
  0.006   0.007   8.624   0.000   0.000 -19.007  -0.000   0.000
  0.000   0.000   0.000   8.565  -0.000  -0.000 -18.896   0.000
  0.008   0.011   0.000  -0.000   8.625   0.000   0.000 -19.003
 total augmentation occupancy for first ion, spin component:           1
  8.389  -3.841   0.200   0.000  -0.247   0.023   0.000  -0.051
 -3.841   1.857  -0.089  -0.000   0.171  -0.009   0.000   0.031
  0.200  -0.089   1.482   0.000   0.131   0.145   0.000   0.026
  0.000   0.000   0.000   1.509   0.000   0.000   0.069   0.000
 -0.247   0.171   0.131   0.000   1.908   0.025   0.000   0.195
  0.023  -0.009   0.145   0.000   0.025   0.016   0.000   0.003
  0.000   0.000   0.000   0.069   0.000   0.000   0.005   0.000
 -0.051   0.031   0.026   0.000   0.195   0.003   0.000   0.022


------------------------ aborting loop because EDIFF is reached ----------------------------------------


    CHARGE:  cpu time    0.0172: real time    0.0172
    FORLOC:  cpu time    0.0026: real time    0.0026
    FORNL :  cpu time    0.0066: real time    0.0066
    STRESS:  cpu time    0.1097: real time    0.1098
    FORCOR:  cpu time    0.1052: real time    0.1052
    FORHAR:  cpu time    0.0499: real time    0.0508
    MIXING:  cpu time    0.0048: real time    0.0048
    OFIELD:  cpu time    0.0000: real time    0.0000

 ---------------------------------------------------------------------------------------------

         DFTD3 V3.0 Rev 1        
 Edisp (eV)   -0.15106

 E6    (eV) :    -0.1038
 E8    (eV) :    -0.0473
 % E8        : 31.31
    FORVDW:  cpu time    0.0070: real time    0.0075

  FORCE on cell =-STRESS in cart. coord.  units (eV):
  Direction    XX          YY          ZZ          XY          YZ          ZX
  --------------------------------------------------------------------------------------
  Alpha Z     3.52063     3.52063     3.52063
  Ewald    1798.25954  1758.59043 -2068.06956    18.62360    -0.00000     0.00000
  Hartree  1722.04615  1717.97930 -1713.05426     1.77386    -0.00000    -0.00000
  E(xc)     -29.95910   -30.07129   -31.25287     0.11301     0.00000    -0.00000
  Local   -3596.52491 -3557.37751  3665.09778   -19.61255     0.00000    -0.00000
  n-local    -6.29908    -6.14089   -10.53456     1.34442     0.00000     0.00000
  augment    -0.89817    -0.85568    -0.63640    -0.00945     0.00000     0.00000
  Kinetic   116.49185   118.70047   154.89010   -10.71652    -0.00000     0.00000
  Fock        0.00000     0.00000     0.00000     0.00000     0.00000     0.00000
  vdW        -0.15891    -0.15811    -0.00039     0.00090    -0.00000     0.00000
  -------------------------------------------------------------------------------------
  Total       6.47800     4.18735    -0.03951    -8.48273     0.00000     0.00000
  in kB     111.20444    71.88196    -0.67831  -145.61860     0.00000     0.00000
  external pressure =       60.80 kB  Pullay stress =        0.00 kB


 VOLUME and BASIS-vectors are now :
 -----------------------------------------------------------------------------
  energy-cutoff  :      600.00
  volume of cell :       93.33
      direct lattice vectors                 reciprocal lattice vectors
     2.466000000  0.363055170  0.000000000     0.457640226 -0.354053068  0.000000000
     1.652220000  2.135618646  0.000000000    -0.077798838  0.528437415  0.000000000
     0.000000000  0.000000000 20.000000000     0.000000000  0.000000000  0.050000000

  length of vectors
     2.492582006  2.700129243 20.000000000     0.578608807  0.534133655  0.050000000


 FORCES acting on ions
    electron-ion (+dipol)            ewald-force                    non-local-force                 convergence-correction
 -----------------------------------------------------------------------------------------------
   -.223E+02 0.826E+01 0.188E-07   0.250E+02 -.643E+01 -.587E-20   -.264E+01 -.181E+01 0.000E+00   -.126E-03 -.929E-04 0.620E-13
   0.223E+02 -.826E+01 -.188E-07   -.250E+02 0.643E+01 0.684E-20   0.264E+01 0.181E+01 -.237E-29   0.126E-03 0.929E-04 0.615E-13
 -----------------------------------------------------------------------------------------------
   0.856E-13 0.188E-12 0.518E-11   -.711E-14 -.533E-14 0.972E-21   0.444E-15 -.222E-15 -.237E-29   -.130E-14 0.595E-15 0.123E-12
 
 
 POSITION                                       TOTAL-FORCE (eV/Angst)
 -----------------------------------------------------------------------------------
      1.47806      0.88293     10.00000         0.013865      0.018813      0.000000
      2.64016      1.61575     10.00000        -0.013865     -0.018813      0.000000
 -----------------------------------------------------------------------------------
    total drift:                                0.000000      0.000000      0.000000


--------------------------------------------------------------------------------------------------------



  FREE ENERGIE OF THE ION-ELECTRON SYSTEM (eV)
  ---------------------------------------------------
  free  energy   TOTEN  =       -14.66404912 eV

  energy  without entropy=      -14.66394046  energy(sigma->0) =      -14.66399479
 
 d Force = 0.8016412E-01[-0.129E-02, 0.162E+00]  d Energy = 0.8088610E-01-0.722E-03
 d Force = 0.1556914E+00[-0.144E+00, 0.455E+00]  d Ewald  = 0.1582986E+00-0.261E-02


--------------------------------------------------------------------------------------------------------


    POTLOK:  cpu time    0.1261: real time    0.1263


--------------------------------------------------------------------------------------------------------




--------------------------------------------------------------------------------------------------------


  
 reached required accuracy - stopping structural energy minimisation
     LOOP+:  cpu time    3.4926: real time    3.4969
    4ORBIT:  cpu time    0.0000: real time    0.0000

 total amount of memory used by VASP MPI-rank0    61901. kBytes
=======================================================================

   base      :      30000. kBytes
   nonl-proj :       1719. kBytes
   fftplans  :      10664. kBytes
   grid      :      17886. kBytes
   one-center:          6. kBytes
   wavefun   :       1626. kBytes
 
  
  
 General timing and accounting informations for this job:
 ========================================================
  
                  Total CPU time used (sec):       50.022
                            User time (sec):       48.420
                          System time (sec):        1.602
                         Elapsed time (sec):       50.388
  
                   Maximum memory used (kb):      167720.
                   Average memory used (kb):          N/A
  
                          Minor page faults:       620375
                          Major page faults:            2
                 Voluntary context switches:          573
