   8   8   0   0
  0.4394818E+01  0.2765546E-09  0.3398384E-09  0.3946502E-09  0.5000000E-15
  1.000000000000000E-004
  CAR 
 unknown system                          
     26.26549753    -12.85774887  301     17.08617760      1.00000000
    -12.858  0.0000E+00  0.0000E+00
    -12.727  0.0000E+00  0.0000E+00
    -12.597  0.0000E+00  0.0000E+00
    -12.467  0.0000E+00  0.0000E+00
    -12.336  0.0000E+00  0.0000E+00
    -12.206  0.0000E+00  0.0000E+00
    -12.075  0.0000E+00  0.0000E+00
    -11.945  0.0000E+00  0.0000E+00
    -11.814  0.0000E+00  0.0000E+00
    -11.684  0.0000E+00  0.0000E+00
    -11.554  0.1595E-13  0.2081E-14
    -11.423  0.9356E-09  0.1220E-09
    -11.293  0.2116E-05  0.2761E-06
    -11.162  0.2235E-03  0.2943E-04
    -11.032  0.1649E-02  0.2445E-03
    -10.902  0.1317E-02  0.4163E-03
    -10.771  0.1486E-02  0.6100E-03
    -10.641  0.1585E-02  0.8168E-03
    -10.510  0.1264E-03  0.8333E-03
    -10.380  0.8000E-05  0.8343E-03
    -10.250  0.3536E-03  0.8804E-03
    -10.119  0.1161E-02  0.1032E-02
     -9.989  0.1861E-02  0.1275E-02
     -9.858  0.3019E-02  0.1668E-02
     -9.728  0.2818E-02  0.2036E-02
     -9.597  0.3617E-03  0.2083E-02
     -9.467  0.4943E-05  0.2084E-02
     -9.337  0.2095E-03  0.2111E-02
     -9.206  0.1773E-02  0.2342E-02
     -9.076  0.3654E-02  0.2819E-02
     -8.945  0.2154E-02  0.3100E-02
     -8.815  0.1066E-02  0.3239E-02
     -8.685  0.1951E-02  0.3493E-02
     -8.554  0.1294E-02  0.3662E-02
     -8.424  0.2591E-02  0.4000E-02
     -8.293  0.3658E-02  0.4477E-02
     -8.163  0.2551E-02  0.4809E-02
     -8.033  0.4242E-02  0.5363E-02
     -7.902  0.4280E-02  0.5921E-02
     -7.772  0.9078E-03  0.6039E-02
     -7.641  0.8673E-04  0.6050E-02
     -7.511  0.1790E-02  0.6284E-02
     -7.380  0.4294E-02  0.6844E-02
     -7.250  0.2770E-02  0.7205E-02
     -7.120  0.6504E-03  0.7290E-02
     -6.989  0.1282E-03  0.7307E-02
     -6.859  0.1712E-02  0.7530E-02
     -6.728  0.3499E-02  0.7986E-02
     -6.598  0.2158E-02  0.8268E-02
     -6.468  0.2140E-02  0.8547E-02
     -6.337  0.2188E-02  0.8832E-02
     -6.207  0.2310E-02  0.9133E-02
     -6.076  0.4625E-02  0.9737E-02
     -5.946  0.3659E-02  0.1021E-01
     -5.816  0.1720E-02  0.1044E-01
     -5.685  0.2340E-02  0.1074E-01
     -5.555  0.3596E-02  0.1121E-01
     -5.424  0.4579E-02  0.1181E-01
     -5.294  0.4291E-02  0.1237E-01
     -5.164  0.7894E-02  0.1340E-01
     -5.033  0.4136E-02  0.1394E-01
     -4.903  0.2031E-02  0.1420E-01
     -4.772  0.3697E-02  0.1468E-01
     -4.642  0.8139E-03  0.1479E-01
     -4.511  0.4512E-03  0.1485E-01
     -4.381  0.1667E-02  0.1507E-01
     -4.251  0.2496E-02  0.1539E-01
     -4.120  0.3096E-02  0.1580E-01
     -3.990  0.2397E-02  0.1611E-01
     -3.859  0.3023E-02  0.1650E-01
     -3.729  0.3804E-02  0.1700E-01
     -3.599  0.2323E-02  0.1730E-01
     -3.468  0.3631E-02  0.1778E-01
     -3.338  0.6633E-02  0.1864E-01
     -3.207  0.3599E-02  0.1911E-01
     -3.077  0.2788E-02  0.1947E-01
     -2.947  0.3011E-02  0.1987E-01
     -2.816  0.4599E-02  0.2047E-01
     -2.686  0.5012E-02  0.2112E-01
     -2.555  0.2116E-02  0.2140E-01
     -2.425  0.3388E-02  0.2184E-01
     -2.294  0.4479E-02  0.2242E-01
     -2.164  0.1411E-02  0.2261E-01
     -2.034  0.7455E-03  0.2270E-01
     -1.903  0.4432E-03  0.2276E-01
     -1.773  0.3170E-02  0.2317E-01
     -1.642  0.8826E-02  0.2433E-01
     -1.512  0.9671E-02  0.2559E-01
     -1.382  0.4379E-02  0.2616E-01
     -1.251  0.8243E-03  0.2626E-01
     -1.121  0.1775E-02  0.2650E-01
     -0.990  0.4556E-02  0.2709E-01
     -0.860  0.5042E-02  0.2775E-01
     -0.730  0.3752E-02  0.2824E-01
     -0.599  0.4225E-02  0.2879E-01
     -0.469  0.4940E-02  0.2943E-01
     -0.338  0.5928E-02  0.3021E-01
     -0.208  0.3345E-02  0.3064E-01
     -0.077  0.4048E-02  0.3117E-01
      0.053  0.3617E-02  0.3164E-01
      0.183  0.2923E-02  0.3202E-01
      0.314  0.2892E-02  0.3240E-01
      0.444  0.2233E-02  0.3269E-01
      0.575  0.5290E-02  0.3338E-01
      0.705  0.5817E-02  0.3414E-01
      0.835  0.4168E-02  0.3468E-01
      0.966  0.1861E-02  0.3493E-01
      1.096  0.2416E-02  0.3524E-01
      1.227  0.3008E-02  0.3563E-01
      1.357  0.4046E-02  0.3616E-01
      1.487  0.3252E-02  0.3658E-01
      1.618  0.5243E-02  0.3727E-01
      1.748  0.6350E-02  0.3810E-01
      1.879  0.5493E-02  0.3881E-01
      2.009  0.4635E-02  0.3942E-01
      2.139  0.4578E-02  0.4001E-01
      2.270  0.7230E-02  0.4096E-01
      2.400  0.5308E-02  0.4165E-01
      2.531  0.7562E-02  0.4264E-01
      2.661  0.9440E-02  0.4387E-01
      2.792  0.5935E-02  0.4464E-01
      2.922  0.5845E-02  0.4540E-01
      3.052  0.6000E-02  0.4619E-01
      3.183  0.4104E-02  0.4672E-01
      3.313  0.5051E-02  0.4738E-01
      3.444  0.6288E-02  0.4820E-01
      3.574  0.5543E-02  0.4892E-01
      3.704  0.2811E-02  0.4929E-01
      3.835  0.5234E-02  0.4997E-01
      3.965  0.6053E-02  0.5076E-01
      4.096  0.9574E-02  0.5201E-01
      4.226  0.6492E-02  0.5286E-01
      4.356  0.2664E-02  0.5320E-01
      4.487  0.3834E-02  0.5370E-01
      4.617  0.7480E-02  0.5468E-01
      4.748  0.1233E-01  0.5629E-01
      4.878  0.8887E-02  0.5745E-01
      5.009  0.3011E-02  0.5784E-01
      5.139  0.1822E-02  0.5808E-01
      5.269  0.4178E-02  0.5862E-01
      5.400  0.7441E-02  0.5959E-01
      5.530  0.9173E-02  0.6079E-01
      5.661  0.8491E-02  0.6190E-01
      5.791  0.9342E-02  0.6311E-01
      5.921  0.7618E-02  0.6411E-01
      6.052  0.1037E-01  0.6546E-01
      6.182  0.7743E-02  0.6647E-01
      6.313  0.6418E-02  0.6731E-01
      6.443  0.6204E-02  0.6811E-01
      6.573  0.5722E-02  0.6886E-01
      6.704  0.6028E-02  0.6965E-01
      6.834  0.4408E-02  0.7022E-01
      6.965  0.6889E-02  0.7112E-01
      7.095  0.1017E-01  0.7245E-01
      7.226  0.8500E-02  0.7356E-01
      7.356  0.7622E-02  0.7455E-01
      7.486  0.6524E-02  0.7540E-01
      7.617  0.5982E-02  0.7618E-01
      7.747  0.4671E-02  0.7679E-01
      7.878  0.4374E-02  0.7736E-01
      8.008  0.5564E-02  0.7809E-01
      8.138  0.6187E-02  0.7889E-01
      8.269  0.6516E-02  0.7974E-01
      8.399  0.5938E-02  0.8052E-01
      8.530  0.5289E-02  0.8121E-01
      8.660  0.6374E-02  0.8204E-01
      8.790  0.7158E-02  0.8297E-01
      8.921  0.4924E-02  0.8361E-01
      9.051  0.5455E-02  0.8432E-01
      9.182  0.2468E-02  0.8465E-01
      9.312  0.1997E-02  0.8491E-01
      9.443  0.5337E-02  0.8560E-01
      9.573  0.3190E-02  0.8602E-01
      9.703  0.1165E-02  0.8617E-01
      9.834  0.1605E-02  0.8638E-01
      9.964  0.1678E-02  0.8660E-01
     10.095  0.5372E-02  0.8730E-01
     10.225  0.3736E-02  0.8779E-01
     10.355  0.3180E-02  0.8820E-01
     10.486  0.3464E-02  0.8865E-01
     10.616  0.3498E-02  0.8911E-01
     10.747  0.3082E-02  0.8951E-01
     10.877  0.3079E-02  0.8991E-01
     11.007  0.3321E-02  0.9035E-01
     11.138  0.4444E-02  0.9093E-01
     11.268  0.5135E-02  0.9160E-01
     11.399  0.2633E-02  0.9194E-01
     11.529  0.1069E-02  0.9208E-01
     11.659  0.9320E-03  0.9220E-01
     11.790  0.9155E-03  0.9232E-01
     11.920  0.2118E-02  0.9260E-01
     12.051  0.2240E-02  0.9289E-01
     12.181  0.1718E-02  0.9311E-01
     12.312  0.2669E-02  0.9346E-01
     12.442  0.2416E-02  0.9377E-01
     12.572  0.1298E-02  0.9394E-01
     12.703  0.8740E-03  0.9406E-01
     12.833  0.1590E-02  0.9427E-01
     12.964  0.1266E-02  0.9443E-01
     13.094  0.2936E-02  0.9481E-01
     13.224  0.2470E-02  0.9514E-01
     13.355  0.2431E-02  0.9545E-01
     13.485  0.2835E-02  0.9582E-01
     13.616  0.1550E-02  0.9602E-01
     13.746  0.9012E-03  0.9614E-01
     13.876  0.1627E-02  0.9635E-01
     14.007  0.2209E-02  0.9664E-01
     14.137  0.1731E-02  0.9687E-01
     14.268  0.1618E-02  0.9708E-01
     14.398  0.2053E-02  0.9735E-01
     14.529  0.2370E-02  0.9766E-01
     14.659  0.3591E-02  0.9812E-01
     14.789  0.4429E-02  0.9870E-01
     14.920  0.4344E-02  0.9927E-01
     15.050  0.2774E-02  0.9963E-01
     15.181  0.1971E-02  0.9989E-01
     15.311  0.1376E-02  0.1001E+00
     15.441  0.1308E-02  0.1002E+00
     15.572  0.2729E-02  0.1006E+00
     15.702  0.4874E-02  0.1012E+00
     15.833  0.4986E-02  0.1019E+00
     15.963  0.2831E-02  0.1022E+00
     16.093  0.1418E-02  0.1024E+00
     16.224  0.3090E-02  0.1028E+00
     16.354  0.4691E-02  0.1034E+00
     16.485  0.4728E-02  0.1041E+00
     16.615  0.4653E-02  0.1047E+00
     16.746  0.4324E-02  0.1052E+00
     16.876  0.5168E-02  0.1059E+00
     17.006  0.3861E-02  0.1064E+00
     17.137  0.3415E-02  0.1069E+00
     17.267  0.4316E-02  0.1074E+00
     17.398  0.4997E-02  0.1081E+00
     17.528  0.8060E-02  0.1091E+00
     17.658  0.5965E-02  0.1099E+00
     17.789  0.5140E-02  0.1106E+00
     17.919  0.6046E-02  0.1114E+00
     18.050  0.7467E-02  0.1123E+00
     18.180  0.1194E-01  0.1139E+00
     18.310  0.8515E-02  0.1150E+00
     18.441  0.4449E-02  0.1156E+00
     18.571  0.7696E-02  0.1166E+00
     18.702  0.8202E-02  0.1177E+00
     18.832  0.7360E-02  0.1186E+00
     18.962  0.7100E-02  0.1195E+00
     19.093  0.4281E-02  0.1201E+00
     19.223  0.4056E-02  0.1206E+00
     19.354  0.5396E-02  0.1213E+00
     19.484  0.5987E-02  0.1221E+00
     19.615  0.5017E-02  0.1228E+00
     19.745  0.2234E-02  0.1231E+00
     19.875  0.1790E-02  0.1233E+00
     20.006  0.4477E-02  0.1239E+00
     20.136  0.7018E-02  0.1248E+00
     20.267  0.6704E-02  0.1257E+00
     20.397  0.7347E-02  0.1266E+00
     20.527  0.5642E-02  0.1274E+00
     20.658  0.5119E-02  0.1280E+00
     20.788  0.6982E-02  0.1289E+00
     20.919  0.7002E-02  0.1298E+00
     21.049  0.5923E-02  0.1306E+00
     21.179  0.8396E-02  0.1317E+00
     21.310  0.7568E-02  0.1327E+00
     21.440  0.8445E-02  0.1338E+00
     21.571  0.9346E-02  0.1350E+00
     21.701  0.4569E-02  0.1356E+00
     21.832  0.6510E-02  0.1365E+00
     21.962  0.9732E-02  0.1377E+00
     22.092  0.5707E-02  0.1385E+00
     22.223  0.3189E-02  0.1389E+00
     22.353  0.1775E-02  0.1391E+00
     22.484  0.6452E-02  0.1400E+00
     22.614  0.8035E-02  0.1410E+00
     22.744  0.7391E-02  0.1420E+00
     22.875  0.5923E-02  0.1428E+00
     23.005  0.5722E-02  0.1435E+00
     23.136  0.2708E-02  0.1439E+00
     23.266  0.2042E-02  0.1441E+00
     23.396  0.4278E-02  0.1447E+00
     23.527  0.6866E-02  0.1456E+00
     23.657  0.2879E-02  0.1459E+00
     23.788  0.1236E-02  0.1461E+00
     23.918  0.1621E-02  0.1463E+00
     24.049  0.9648E-03  0.1464E+00
     24.179  0.7798E-04  0.1465E+00
     24.309  0.9865E-05  0.1465E+00
     24.440  0.3918E-03  0.1465E+00
     24.570  0.1004E-02  0.1466E+00
     24.701  0.1901E-03  0.1467E+00
     24.831  0.2032E-05  0.1467E+00
     24.961  0.9272E-09  0.1467E+00
     25.092  0.1592E-13  0.1467E+00
     25.222  0.0000E+00  0.1467E+00
     25.353  0.0000E+00  0.1467E+00
     25.483  0.0000E+00  0.1467E+00
     25.613  0.0000E+00  0.1467E+00
     25.744  0.0000E+00  0.1467E+00
     25.874  0.0000E+00  0.1467E+00
     26.005  0.0000E+00  0.1467E+00
     26.135  0.0000E+00  0.1467E+00
     26.265  0.0000E+00  0.1467E+00
