    8    8  300    1
  0.4394818E+01  0.2765546E-09  0.3398384E-09  0.3946502E-09  0.5000000E-15
  1.000000000000000E-004
  CAR 
 unknown system                          
     32     32     22
 
  0.1250000E+00  0.1250000E+00  0.1250000E+00  0.3125000E-01
    1      -11.018579   1.000000
    2       -5.715416   1.000000
    3       -1.676014   1.000000
    4       -1.613692   1.000000
    5        1.583768   1.000000
    6        2.171233   1.000000
    7        2.795962   1.000000
    8        3.222756   1.000000
    9        4.506845   1.000000
   10        6.709268   1.000000
   11        7.011481   1.000000
   12        7.169533   1.000000
   13        8.541029   1.000000
   14        8.953778   1.000000
   15       12.373110   1.000000
   16       17.555373   0.000000
   17       18.042071   0.000000
   18       18.112325   0.000000
   19       18.888754   0.000000
   20       20.114470   0.000000
   21       20.380799   0.000000
   22       20.907848   0.000000
 
  0.3750000E+00  0.1250000E+00  0.1250000E+00  0.3125000E-01
    1       -9.132121   1.000000
    2       -4.356354   1.000000
    3       -3.918812   1.000000
    4       -1.422446   1.000000
    5        0.548704   1.000000
    6        1.325833   1.000000
    7        2.103895   1.000000
    8        2.540257   1.000000
    9        4.383001   1.000000
   10        4.691184   1.000000
   11        5.457813   1.000000
   12        6.168781   1.000000
   13        6.182453   1.000000
   14       11.159901   1.000000
   15       14.664542   1.000000
   16       14.898497   1.000000
   17       18.664889   0.000000
   18       19.842871   0.000000
   19       21.224795   0.000000
   20       22.904184   0.000000
   21       23.434160   0.000000
   22       23.474055   0.000000
 
 -0.3750000E+00  0.1250000E+00  0.1250000E+00  0.3125000E-01
    1       -8.367516   1.000000
    2       -5.194234   1.000000
    3       -3.816468   1.000000
    4       -2.709248   1.000000
    5       -0.052589   1.000000
    6        0.072565   1.000000
    7        2.372482   1.000000
    8        3.790784   1.000000
    9        4.617667   1.000000
   10        4.652971   1.000000
   11        5.980063   1.000000
   12        8.554861   1.000000
   13        9.092488   1.000000
   14        9.418994   1.000000
   15       13.431510   1.000000
   16       15.337925   1.000000
   17       17.236680   0.016651
   18       17.963467   0.000000
   19       21.048773   0.000000
   20       22.729855   0.000000
   21       23.327980   0.000000
   22       23.499138   0.000000
 
 -0.1250000E+00  0.1250000E+00  0.1250000E+00  0.3125000E-01
    1      -10.763584   1.000000
    2       -5.210671   1.000000
    3       -3.671061   1.000000
    4       -1.565790   1.000000
    5        0.286565   1.000000
    6        2.156344   1.000000
    7        4.051831   1.000000
    8        4.455428   1.000000
    9        4.677938   1.000000
   10        4.784799   1.000000
   11        7.775078   1.000000
   12        8.468102   1.000000
   13       10.011761   1.000000
   14       10.363719   1.000000
   15       13.046003   1.000000
   16       15.811232   1.000000
   17       16.399825   1.000000
   18       17.813142   0.000000
   19       18.614900   0.000000
   20       19.284469   0.000000
   21       19.474061   0.000000
   22       21.549015   0.000000
 
  0.1250000E+00  0.3750000E+00  0.1250000E+00  0.3125000E-01
    1       -9.853662   1.000000
    2       -6.017547   1.000000
    3       -4.876129   1.000000
    4       -0.842755   1.000000
    5       -0.444408   1.000000
    6        1.744694   1.000000
    7        2.420023   1.000000
    8        5.412444   1.000000
    9        5.927770   1.000000
   10        6.897110   1.000000
   11        7.000990   1.000000
   12        7.435855   1.000000
   13        8.246440   1.000000
   14       10.981083   1.000000
   15       14.658307   1.000000
   16       17.628378   0.000000
   17       17.766381   0.000000
   18       18.241632   0.000000
   19       19.177120   0.000000
   20       20.729244   0.000000
   21       21.431034   0.000000
   22       22.699644   0.000000
 
  0.3750000E+00  0.3750000E+00  0.1250000E+00  0.3125000E-01
    1       -8.552699   1.000000
    2       -4.874759   1.000000
    3       -2.809817   1.000000
    4       -2.444367   1.000000
    5       -1.096365   1.000000
    6        1.614771   1.000000
    7        2.022808   1.000000
    8        2.682224   1.000000
    9        4.012351   1.000000
   10        4.056427   1.000000
   11        5.459372   1.000000
   12        5.676342   1.000000
   13        8.583290   1.000000
   14        8.819625   1.000000
   15       17.042073   0.733600
   16       20.025972   0.000000
   17       20.306120   0.000000
   18       21.210027   0.000000
   19       21.386178   0.000000
   20       21.935376   0.000000
   21       22.426213   0.000000
   22       23.137008   0.000000
 
 -0.3750000E+00  0.3750000E+00  0.1250000E+00  0.3125000E-01
    1       -6.877441   1.000000
    2       -6.073171   1.000000
    3       -5.266373   1.000000
    4       -0.708599   1.000000
    5       -0.593736   1.000000
    6       -0.411815   1.000000
    7        1.927099   1.000000
    8        2.555541   1.000000
    9        3.225575   1.000000
   10        4.631663   1.000000
   11        7.143783   1.000000
   12        7.610746   1.000000
   13        8.084542   1.000000
   14       11.904852   1.000000
   15       15.836623   1.000000
   16       16.548745   1.000000
   17       19.532034   0.000000
   18       20.037354   0.000000
   19       20.622072   0.000000
   20       21.966758   0.000000
   21       23.406657   0.000000
   22       24.487168   0.000000
 
 -0.1250000E+00  0.3750000E+00  0.1250000E+00  0.3125000E-01
    1       -9.029212   1.000000
    2       -7.483159   1.000000
    3       -3.768262   1.000000
    4       -1.759531   1.000000
    5       -0.376029   1.000000
    6        0.233690   1.000000
    7        2.247653   1.000000
    8        4.129567   1.000000
    9        5.960916   1.000000
   10        8.168586   1.000000
   11        8.666661   1.000000
   12       10.256555   1.000000
   13       10.570643   1.000000
   14       12.146948   1.000000
   15       13.300637   1.000000
   16       14.821050   1.000000
   17       16.713822   1.000000
   18       16.722839   1.000000
   19       17.410736   0.000002
   20       20.012095   0.000000
   21       22.501616   0.000000
   22       22.936398   0.000000
 
  0.1250000E+00 -0.3750000E+00  0.1250000E+00  0.3125000E-01
    1       -9.093010   1.000000
    2       -7.298458   1.000000
    3       -3.414380   1.000000
    4       -2.818709   1.000000
    5       -0.146117   1.000000
    6       -0.090314   1.000000
    7        2.991245   1.000000
    8        5.313391   1.000000
    9        5.915334   1.000000
   10        7.114479   1.000000
   11        8.693113   1.000000
   12       10.409549   1.000000
   13       10.536340   1.000000
   14       11.043682   1.000000
   15       13.985985   1.000000
   16       14.433688   1.000000
   17       16.919698   0.990723
   18       17.523347   0.000000
   19       18.112178   0.000000
   20       19.352313   0.000000
   21       21.839400   0.000000
   22       22.944084   0.000000
 
  0.3750000E+00 -0.3750000E+00  0.1250000E+00  0.3125000E-01
    1       -6.611287   1.000000
    2       -6.074839   1.000000
    3       -5.579625   1.000000
    4       -1.668149   1.000000
    5       -0.826357   1.000000
    6        0.740065   1.000000
    7        2.672155   1.000000
    8        3.081861   1.000000
    9        3.322478   1.000000
   10        3.426402   1.000000
   11        7.125582   1.000000
   12        7.602649   1.000000
   13        8.705940   1.000000
   14       10.713050   1.000000
   15       15.682148   1.000000
   16       18.101609   0.000000
   17       19.590119   0.000000
   18       20.219757   0.000000
   19       20.534881   0.000000
   20       21.150520   0.000000
   21       21.666933   0.000000
   22       22.525366   0.000000
 
 -0.3750000E+00 -0.3750000E+00  0.1250000E+00  0.3125000E-01
    1       -8.742174   1.000000
    2       -4.196858   1.000000
    3       -2.407700   1.000000
    4       -2.399577   1.000000
    5       -1.016056   1.000000
    6        0.488514   1.000000
    7        0.628233   1.000000
    8        2.579467   1.000000
    9        3.388709   1.000000
   10        5.597820   1.000000
   11        5.691133   1.000000
   12        5.783222   1.000000
   13        8.984653   1.000000
   14        9.485758   1.000000
   15       18.482003   0.000000
   16       18.812582   0.000000
   17       20.367644   0.000000
   18       20.548526   0.000000
   19       20.984370   0.000000
   20       21.891215   0.000000
   21       22.461705   0.000000
   22       23.421468   0.000000
 
 -0.1250000E+00 -0.3750000E+00  0.1250000E+00  0.3125000E-01
    1       -9.977542   1.000000
    2       -5.899961   1.000000
    3       -4.077532   1.000000
    4       -1.595329   1.000000
    5       -1.020070   1.000000
    6        1.739035   1.000000
    7        2.862460   1.000000
    8        4.639390   1.000000
    9        5.419395   1.000000
   10        6.686435   1.000000
   11        7.293638   1.000000
   12        8.012445   1.000000
   13        8.955491   1.000000
   14       11.991948   1.000000
   15       15.519397   1.000000
   16       16.159984   1.000000
   17       18.122059   0.000000
   18       18.209873   0.000000
   19       19.724486   0.000000
   20       20.250280   0.000000
   21       21.157585   0.000000
   22       22.055297   0.000000
 
  0.1250000E+00 -0.1250000E+00  0.1250000E+00  0.3125000E-01
    1      -10.766049   1.000000
    2       -5.220286   1.000000
    3       -3.431778   1.000000
    4       -1.544254   1.000000
    5       -0.245021   1.000000
    6        1.585837   1.000000
    7        3.873893   1.000000
    8        4.624486   1.000000
    9        4.981728   1.000000
   10        6.034901   1.000000
   11        7.801403   1.000000
   12        8.360476   1.000000
   13       10.051041   1.000000
   14       10.106683   1.000000
   15       13.042347   1.000000
   16       15.686464   1.000000
   17       16.555214   1.000000
   18       18.261596   0.000000
   19       18.436573   0.000000
   20       18.742936   0.000000
   21       18.813850   0.000000
   22       21.601175   0.000000
 
  0.3750000E+00 -0.1250000E+00  0.1250000E+00  0.3125000E-01
    1       -8.309008   1.000000
    2       -5.398811   1.000000
    3       -3.431672   1.000000
    4       -3.172943   1.000000
    5        0.557212   1.000000
    6        0.710109   1.000000
    7        1.118994   1.000000
    8        3.519191   1.000000
    9        3.536463   1.000000
   10        5.974411   1.000000
   11        7.326265   1.000000
   12        8.634240   1.000000
   13        8.725562   1.000000
   14        8.780001   1.000000
   15       13.526024   1.000000
   16       15.611528   1.000000
   17       16.735688   1.000000
   18       18.170609   0.000000
   19       21.084398   0.000000
   20       21.477094   0.000000
   21       22.526142   0.000000
   22       22.724343   0.000000
 
 -0.3750000E+00 -0.1250000E+00  0.1250000E+00  0.3125000E-01
    1       -9.254469   1.000000
    2       -3.785929   1.000000
    3       -3.469618   1.000000
    4       -1.845754   1.000000
    5       -0.135851   1.000000
    6        0.953305   1.000000
    7        1.938211   1.000000
    8        2.599810   1.000000
    9        2.901331   1.000000
   10        5.609527   1.000000
   11        6.321612   1.000000
   12        6.410732   1.000000
   13        7.809942   1.000000
   14        9.198665   1.000000
   15       14.841755   1.000000
   16       15.692596   1.000000
   17       19.562197   0.000000
   18       20.928168   0.000000
   19       21.113870   0.000000
   20       21.469252   0.000000
   21       22.575900   0.000000
   22       23.641920   0.000000
 
 -0.1250000E+00 -0.1250000E+00  0.1250000E+00  0.3125000E-01
    1      -11.079419   1.000000
    2       -5.302055   1.000000
    3       -2.165978   1.000000
    4       -1.465452   1.000000
    5        1.298387   1.000000
    6        2.419482   1.000000
    7        2.798214   1.000000
    8        2.998242   1.000000
    9        4.746728   1.000000
   10        6.044913   1.000000
   11        6.144950   1.000000
   12        6.686337   1.000000
   13        9.693710   1.000000
   14       10.710421   1.000000
   15       13.397441   1.000000
   16       16.253372   1.000000
   17       16.258885   1.000000
   18       17.714825   0.000000
   19       19.993288   0.000000
   20       20.166369   0.000000
   21       20.763312   0.000000
   22       21.839909   0.000000
 
  0.1250000E+00  0.1250000E+00  0.3750000E+00  0.3125000E-01
    1      -10.013405   1.000000
    2       -8.388055   1.000000
    3       -0.903020   1.000000
    4        1.168626   1.000000
    5        1.892491   1.000000
    6        2.253890   1.000000
    7        2.426422   1.000000
    8        3.975436   1.000000
    9        4.048441   1.000000
   10        5.407450   1.000000
   11        5.716233   1.000000
   12        6.289255   1.000000
   13        8.260408   1.000000
   14        8.975236   1.000000
   15       13.217873   1.000000
   16       18.129954   0.000000
   17       18.822729   0.000000
   18       18.927297   0.000000
   19       20.231257   0.000000
   20       20.711673   0.000000
   21       20.891481   0.000000
   22       21.429271   0.000000
 
  0.3750000E+00  0.1250000E+00  0.3750000E+00  0.3125000E-01
    1       -8.081173   1.000000
    2       -6.770105   1.000000
    3       -3.199706   1.000000
    4       -0.997203   1.000000
    5       -0.625410   1.000000
    6        2.223982   1.000000
    7        2.577170   1.000000
    8        2.982251   1.000000
    9        3.291162   1.000000
   10        4.778946   1.000000
   11        4.879202   1.000000
   12        6.314464   1.000000
   13        7.942092   1.000000
   14       13.086328   1.000000
   15       14.797334   1.000000
   16       15.770044   1.000000
   17       16.991948   0.908669
   18       17.947273   0.000000
   19       21.208617   0.000000
   20       22.164971   0.000000
   21       23.510418   0.000000
   22       23.818648   0.000000
 
 -0.3750000E+00  0.1250000E+00  0.3750000E+00  0.3125000E-01
    1       -7.500787   1.000000
    2       -5.420317   1.000000
    3       -4.156179   1.000000
    4       -3.947271   1.000000
    5       -1.635955   1.000000
    6        0.186649   1.000000
    7        3.146929   1.000000
    8        4.106227   1.000000
    9        5.674133   1.000000
   10        6.441276   1.000000
   11        6.997897   1.000000
   12        8.366868   1.000000
   13        9.390001   1.000000
   14       11.080686   1.000000
   15       11.197054   1.000000
   16       12.712739   1.000000
   17       18.098672   0.000000
   18       19.048192   0.000000
   19       20.782673   0.000000
   20       21.574744   0.000000
   21       22.744755   0.000000
   22       22.993775   0.000000
 
 -0.1250000E+00  0.1250000E+00  0.3750000E+00  0.3125000E-01
    1       -9.817868   1.000000
    2       -7.950459   1.000000
    3       -3.060808   1.000000
    4       -0.671381   1.000000
    5        2.225576   1.000000
    6        2.531382   1.000000
    7        2.838072   1.000000
    8        4.752266   1.000000
    9        5.397707   1.000000
   10        5.779317   1.000000
   11        5.887084   1.000000
   12        7.634947   1.000000
   13        7.648608   1.000000
   14       11.649129   1.000000
   15       14.524060   1.000000
   16       16.342647   1.000000
   17       16.458606   1.000000
   18       17.159934   0.148458
   19       17.552211   0.000000
   20       18.544854   0.000000
   21       22.601591   0.000000
   22       23.437234   0.000000
 
  0.1250000E+00  0.3750000E+00  0.3750000E+00  0.3125000E-01
    1       -8.796163   1.000000
    2       -7.439941   1.000000
    3       -5.221253   1.000000
    4       -3.009672   1.000000
    5        1.069451   1.000000
    6        3.969242   1.000000
    7        4.493635   1.000000
    8        5.424848   1.000000
    9        6.313633   1.000000
   10        6.537000   1.000000
   11        6.956421   1.000000
   12        7.009627   1.000000
   13        7.404332   1.000000
   14        9.368225   1.000000
   15       13.881481   1.000000
   16       17.437850   0.000000
   17       17.444307   0.000000
   18       18.464116   0.000000
   19       18.583719   0.000000
   20       21.916589   0.000000
   21       22.474772   0.000000
   22       23.253958   0.000000
 
  0.3750000E+00  0.3750000E+00  0.3750000E+00  0.3125000E-01
    1       -7.453800   1.000000
    2       -6.516718   1.000000
    3       -2.931509   1.000000
    4       -1.632667   1.000000
    5       -0.540142   1.000000
    6       -0.379918   1.000000
    7        0.548669   1.000000
    8        1.757406   1.000000
    9        5.208774   1.000000
   10        5.236552   1.000000
   11        6.474734   1.000000
   12        6.892058   1.000000
   13       10.090314   1.000000
   14       10.799978   1.000000
   15       15.050159   1.000000
   16       17.175371   0.103585
   17       19.431045   0.000000
   18       20.408628   0.000000
   19       20.528908   0.000000
   20       22.117688   0.000000
   21       22.393714   0.000000
   22       22.807444   0.000000
 
 -0.3750000E+00  0.3750000E+00  0.3750000E+00  0.3125000E-01
    1       -6.332744   1.000000
    2       -5.164088   1.000000
    3       -4.466789   1.000000
    4       -3.340480   1.000000
    5       -2.757050   1.000000
    6       -2.576091   1.000000
    7        4.022314   1.000000
    8        4.543161   1.000000
    9        5.266521   1.000000
   10        5.960258   1.000000
   11        7.074485   1.000000
   12        7.077567   1.000000
   13        8.937187   1.000000
   14       12.298943   1.000000
   15       15.183330   1.000000
   16       16.837690   0.999779
   17       17.443252   0.000000
   18       18.202855   0.000000
   19       19.488425   0.000000
   20       21.185283   0.000000
   21       21.832047   0.000000
   22       21.944772   0.000000
 
 -0.1250000E+00  0.3750000E+00  0.3750000E+00  0.3125000E-01
    1       -8.033536   1.000000
    2       -6.755031   1.000000
    3       -6.422394   1.000000
    4       -4.274374   1.000000
    5        1.358406   1.000000
    6        2.166143   1.000000
    7        4.099902   1.000000
    8        4.790103   1.000000
    9        6.821003   1.000000
   10        7.249850   1.000000
   11        8.223327   1.000000
   12        8.231974   1.000000
   13       11.424264   1.000000
   14       12.239898   1.000000
   15       12.477422   1.000000
   16       13.754246   1.000000
   17       16.590932   1.000000
   18       16.855334   0.999452
   19       18.212933   0.000000
   20       18.986251   0.000000
   21       22.399857   0.000000
   22       22.648994   0.000000
 
  0.1250000E+00 -0.3750000E+00  0.3750000E+00  0.3125000E-01
    1       -8.219247   1.000000
    2       -6.208863   1.000000
    3       -6.132226   1.000000
    4       -5.151618   1.000000
    5        0.732943   1.000000
    6        3.363685   1.000000
    7        3.795324   1.000000
    8        6.096992   1.000000
    9        6.629711   1.000000
   10        7.033110   1.000000
   11        7.238039   1.000000
   12        8.742306   1.000000
   13       10.996737   1.000000
   14       11.255538   1.000000
   15       12.830523   1.000000
   16       14.246776   1.000000
   17       16.825099   0.999889
   18       17.472273   0.000000
   19       17.953271   0.000000
   20       18.613477   0.000000
   21       21.434853   0.000000
   22       22.638947   0.000000
 
  0.3750000E+00 -0.3750000E+00  0.3750000E+00  0.3125000E-01
    1       -5.551797   1.000000
    2       -5.512779   1.000000
    3       -5.159280   1.000000
    4       -3.380748   1.000000
    5       -3.347329   1.000000
    6       -1.711832   1.000000
    7        3.816061   1.000000
    8        5.140423   1.000000
    9        5.623166   1.000000
   10        5.844540   1.000000
   11        6.455661   1.000000
   12        8.361366   1.000000
   13        8.448715   1.000000
   14       10.509028   1.000000
   15       16.096393   1.000000
   16       17.785588   0.000000
   17       17.831134   0.000000
   18       18.637640   0.000000
   19       18.832059   0.000000
   20       19.348487   0.000000
   21       21.440441   0.000000
   22       22.077341   0.000000
 
 -0.3750000E+00 -0.3750000E+00  0.3750000E+00  0.3125000E-01
    1       -8.028661   1.000000
    2       -5.535767   1.000000
    3       -2.379828   1.000000
    4       -1.559302   1.000000
    5       -1.523342   1.000000
    6       -0.374658   1.000000
    7        0.450866   1.000000
    8        1.339526   1.000000
    9        3.538726   1.000000
   10        6.038862   1.000000
   11        7.268946   1.000000
   12        7.270640   1.000000
   13       10.306959   1.000000
   14       11.880061   1.000000
   15       15.010685   1.000000
   16       18.444890   0.000000
   17       18.790861   0.000000
   18       20.232880   0.000000
   19       20.353439   0.000000
   20       21.145768   0.000000
   21       21.478602   0.000000
   22       21.752242   0.000000
 
 -0.1250000E+00 -0.3750000E+00  0.3750000E+00  0.3125000E-01
    1       -9.165366   1.000000
    2       -6.834312   1.000000
    3       -4.881582   1.000000
    4       -3.527633   1.000000
    5        1.508005   1.000000
    6        2.655754   1.000000
    7        3.542873   1.000000
    8        5.622546   1.000000
    9        6.214525   1.000000
   10        6.569715   1.000000
   11        6.924250   1.000000
   12        7.986737   1.000000
   13        8.150063   1.000000
   14       10.075233   1.000000
   15       14.294230   1.000000
   16       16.467155   1.000000
   17       17.879348   0.000000
   18       18.580503   0.000000
   19       19.191447   0.000000
   20       21.245774   0.000000
   21       21.385429   0.000000
   22       23.931136   0.000000
 
  0.1250000E+00 -0.1250000E+00  0.3750000E+00  0.3125000E-01
    1       -9.823276   1.000000
    2       -7.948964   1.000000
    3       -2.365657   1.000000
    4       -1.706439   1.000000
    5        1.589275   1.000000
    6        2.495694   1.000000
    7        3.741260   1.000000
    8        4.862272   1.000000
    9        5.404415   1.000000
   10        5.470016   1.000000
   11        6.651517   1.000000
   12        7.408134   1.000000
   13        8.021260   1.000000
   14       11.255065   1.000000
   15       14.576093   1.000000
   16       16.304318   1.000000
   17       17.177170   0.099077
   18       17.348639   0.000103
   19       17.385296   0.000012
   20       18.900037   0.000000
   21       20.020086   0.000000
   22       21.435281   0.000000
 
  0.3750000E+00 -0.1250000E+00  0.3750000E+00  0.3125000E-01
    1       -7.319938   1.000000
    2       -5.739930   1.000000
    3       -4.807747   1.000000
    4       -2.857945   1.000000
    5       -1.143823   1.000000
    6       -0.912585   1.000000
    7        2.616660   1.000000
    8        5.666892   1.000000
    9        5.725371   1.000000
   10        6.031107   1.000000
   11        7.508521   1.000000
   12        8.034934   1.000000
   13        9.423597   1.000000
   14        9.808811   1.000000
   15       11.226231   1.000000
   16       14.043124   1.000000
   17       19.074230   0.000000
   18       19.253503   0.000000
   19       19.372739   0.000000
   20       20.672759   0.000000
   21       20.812365   0.000000
   22       21.884347   0.000000
 
 -0.3750000E+00 -0.1250000E+00  0.3750000E+00  0.3125000E-01
    1       -8.452674   1.000000
    2       -6.135568   1.000000
    3       -2.783445   1.000000
    4       -1.748630   1.000000
    5        0.044399   1.000000
    6        0.811142   1.000000
    7        1.868661   1.000000
    8        3.392985   1.000000
    9        3.826112   1.000000
   10        4.261238   1.000000
   11        4.741993   1.000000
   12        7.894159   1.000000
   13        9.391583   1.000000
   14       10.020404   1.000000
   15       15.548530   1.000000
   16       17.620814   0.000000
   17       18.116806   0.000000
   18       18.571517   0.000000
   19       20.407283   0.000000
   20       20.912978   0.000000
   21       21.842935   0.000000
   22       22.975772   0.000000
 
 -0.1250000E+00 -0.1250000E+00  0.3750000E+00  0.3125000E-01
    1      -10.196253   1.000000
    2       -8.083735   1.000000
    3       -0.489985   1.000000
    4        0.628411   1.000000
    5        1.657180   1.000000
    6        1.760617   1.000000
    7        2.981134   1.000000
    8        4.094870   1.000000
    9        4.206507   1.000000
   10        4.694320   1.000000
   11        4.737708   1.000000
   12        7.455293   1.000000
   13        7.529578   1.000000
   14       10.856665   1.000000
   15       14.738049   1.000000
   16       15.900182   1.000000
   17       18.040224   0.000000
   18       18.293076   0.000000
   19       20.030257   0.000000
   20       20.774137   0.000000
   21       21.803253   0.000000
   22       22.846519   0.000000
