       N       E                     dE             d eps       ncg     rms          rms(c)
DAV:   1     0.113757598520E+03    0.11376E+03   -0.19564E+04  1408   0.164E+03
DAV:   2    -0.466235184073E+02   -0.16038E+03   -0.14947E+03  1804   0.293E+02
DAV:   3    -0.527467655768E+02   -0.61232E+01   -0.59326E+01  1848   0.510E+01
DAV:   4    -0.528311792145E+02   -0.84414E-01   -0.84067E-01  1722   0.586E+00
DAV:   5    -0.528332212904E+02   -0.20421E-02   -0.20409E-02  1876   0.704E-01    0.144E+01
DAV:   6    -0.494624497610E+02    0.33708E+01   -0.28405E+00  1570   0.116E+01    0.836E+00
DAV:   7    -0.485673409476E+02    0.89511E+00   -0.23849E+00  1660   0.109E+01    0.254E+00
DAV:   8    -0.485711943071E+02   -0.38534E-02   -0.11847E-01  1684   0.257E+00    0.224E-01
DAV:   9    -0.485708830413E+02    0.31127E-03   -0.26212E-03  1828   0.386E-01    0.105E-01
DAV:  10    -0.485709414662E+02   -0.58425E-04   -0.23453E-04  1724   0.113E-01    0.173E-02
DAV:  11    -0.485709421600E+02   -0.69380E-06   -0.10466E-05  1720   0.256E-02    0.832E-03
DAV:  12    -0.485709434346E+02   -0.12746E-05   -0.11131E-06  1162   0.962E-03    0.937E-04
DAV:  13    -0.485709433628E+02    0.71868E-07   -0.66251E-08  1070   0.198E-03
   1 F= -.48570943E+02 E0= -.48565949E+02  d E =-.485709E+02
       N       E                     dE             d eps       ncg     rms          rms(c)
DAV:   1    -0.443745780895E+02    0.41964E+01   -0.11118E+03  1554   0.240E+02    0.257E+01
DAV:   2    -0.477704674465E+02   -0.33959E+01   -0.50958E+01  1802   0.487E+01    0.122E+01
DAV:   3    -0.472242216241E+02    0.54625E+00   -0.89919E-01  1694   0.680E+00    0.843E+00
DAV:   4    -0.468700220204E+02    0.35420E+00   -0.72198E-01  1696   0.642E+00    0.159E+00
DAV:   5    -0.468778276137E+02   -0.78056E-02   -0.81838E-02  1644   0.193E+00    0.608E-01
DAV:   6    -0.468779131238E+02   -0.85510E-04   -0.54830E-04  1720   0.181E-01    0.873E-02
DAV:   7    -0.468779186816E+02   -0.55578E-05   -0.35450E-05  1788   0.428E-02    0.271E-02
DAV:   8    -0.468779177030E+02    0.97864E-06   -0.74721E-06  1644   0.207E-02
   2 F= -.46877918E+02 E0= -.46872290E+02  d E =0.169303E+01
       N       E                     dE             d eps       ncg     rms          rms(c)
DAV:   1    -0.495635410786E+02   -0.26856E+01   -0.42283E+02  1576   0.149E+02    0.940E+00
DAV:   2    -0.500634504746E+02   -0.49991E+00   -0.11909E+01  1768   0.250E+01    0.397E+00
DAV:   3    -0.498889034086E+02    0.17455E+00   -0.27993E-01  1714   0.402E+00    0.253E+00
DAV:   4    -0.498380507359E+02    0.50853E-01   -0.12386E-01  1714   0.275E+00    0.485E-01
DAV:   5    -0.498395886454E+02   -0.15379E-02   -0.16364E-02  1698   0.886E-01    0.192E-01
DAV:   6    -0.498396018975E+02   -0.13252E-04   -0.12549E-04  1818   0.864E-02    0.393E-02
DAV:   7    -0.498396015846E+02    0.31286E-06   -0.76089E-06  1694   0.211E-02
   3 F= -.49839602E+02 E0= -.49834292E+02  d E =-.126866E+01
       N       E                     dE             d eps       ncg     rms          rms(c)
DAV:   1    -0.498450271139E+02   -0.54252E-02   -0.37376E-01  1644   0.450E+00    0.185E-01
DAV:   2    -0.498448003723E+02    0.22674E-03   -0.70766E-03  1724   0.627E-01    0.989E-02
DAV:   3    -0.498445210570E+02    0.27932E-03   -0.74688E-04  1750   0.217E-01    0.183E-02
DAV:   4    -0.498445262404E+02   -0.51835E-05   -0.80225E-05  1614   0.636E-02    0.138E-02
DAV:   5    -0.498445262415E+02   -0.10084E-08   -0.88931E-07  1160   0.731E-03
   4 F= -.49844526E+02 E0= -.49839016E+02  d E =-.127358E+01
       N       E                     dE             d eps       ncg     rms          rms(c)
DAV:   1    -0.498453575823E+02   -0.83134E-03   -0.76436E-02  1596   0.204E+00    0.934E-02
DAV:   2    -0.498452637558E+02    0.93827E-04   -0.14887E-03  1700   0.289E-01    0.488E-02
DAV:   3    -0.498451963875E+02    0.67368E-04   -0.17549E-04  1786   0.105E-01    0.963E-03
DAV:   4    -0.498451977069E+02   -0.13194E-05   -0.18341E-05  1656   0.301E-02    0.722E-03
DAV:   5    -0.498451975575E+02    0.14944E-06   -0.17516E-07   902   0.335E-03
   5 F= -.49845198E+02 E0= -.49839120E+02  d E =-.127425E+01
       N       E                     dE             d eps       ncg     rms          rms(c)
DAV:   1    -0.499409071920E+02   -0.95709E-01   -0.32634E+01  1564   0.416E+01    0.152E+00
DAV:   2    -0.499472870427E+02   -0.63799E-02   -0.53165E-01  1852   0.528E+00    0.865E-01
DAV:   3    -0.499301718134E+02    0.17115E-01   -0.32757E-02  1720   0.145E+00    0.176E-01
DAV:   4    -0.499304123193E+02   -0.24051E-03   -0.41306E-03  1752   0.437E-01    0.971E-02
DAV:   5    -0.499304058932E+02    0.64261E-05   -0.83641E-05  1658   0.723E-02    0.245E-02
DAV:   6    -0.499304042710E+02    0.16222E-05   -0.10564E-05  1720   0.267E-02    0.387E-03
DAV:   7    -0.499304040940E+02    0.17702E-06   -0.78028E-07   980   0.764E-03
   6 F= -.49930404E+02 E0= -.49924684E+02  d E =-.852065E-01
       N       E                     dE             d eps       ncg     rms          rms(c)
DAV:   1    -0.499417984471E+02   -0.11394E-01   -0.26519E+00  1600   0.118E+01    0.410E-01
DAV:   2    -0.499425421023E+02   -0.74366E-03   -0.41061E-02  1772   0.148E+00    0.235E-01
DAV:   3    -0.499412233751E+02    0.13187E-02   -0.34836E-03  1708   0.472E-01    0.314E-02
DAV:   4    -0.499412267222E+02   -0.33471E-05   -0.36137E-04  1648   0.142E-01    0.222E-02
DAV:   5    -0.499412266208E+02    0.10138E-06   -0.67858E-06  1828   0.184E-02
   7 F= -.49941227E+02 E0= -.49935028E+02  d E =-.960291E-01
       N       E                     dE             d eps       ncg     rms          rms(c)
DAV:   1    -0.500838327742E+02   -0.14261E+00   -0.21301E+01  1432   0.344E+01    0.113E+00
DAV:   2    -0.500874293193E+02   -0.35965E-02   -0.26475E-01  1838   0.366E+00    0.657E-01
DAV:   3    -0.500781173779E+02    0.93119E-02   -0.18898E-02  1700   0.107E+00    0.715E-02
DAV:   4    -0.500782646714E+02   -0.14729E-03   -0.17658E-03  1734   0.295E-01    0.529E-02
DAV:   5    -0.500782609944E+02    0.36769E-05   -0.28606E-05  1754   0.430E-02    0.107E-02
DAV:   6    -0.500782614657E+02   -0.47126E-06   -0.30695E-06  1440   0.130E-02
   8 F= -.50078261E+02 E0= -.50074705E+02  d E =-.137035E+00
       N       E                     dE             d eps       ncg     rms          rms(c)
DAV:   1    -0.500896764563E+02   -0.11415E-01   -0.18546E+00  1426   0.102E+01    0.300E-01
DAV:   2    -0.500902914879E+02   -0.61503E-03   -0.22433E-02  1876   0.104E+00    0.175E-01
DAV:   3    -0.500896296189E+02    0.66187E-03   -0.15004E-03  1686   0.298E-01    0.182E-02
DAV:   4    -0.500896347670E+02   -0.51481E-05   -0.12726E-04  1706   0.829E-02    0.122E-02
DAV:   5    -0.500896346171E+02    0.14994E-06   -0.18544E-06  1334   0.106E-02
   9 F= -.50089635E+02 E0= -.50086680E+02  d E =-.148408E+00
       N       E                     dE             d eps       ncg     rms          rms(c)
DAV:   1    -0.501276629117E+02   -0.38028E-01   -0.12161E+01  1582   0.257E+01    0.839E-01
DAV:   2    -0.501321182018E+02   -0.44553E-02   -0.20768E-01  1764   0.332E+00    0.479E-01
DAV:   3    -0.501257730401E+02    0.63452E-02   -0.13802E-02  1726   0.950E-01    0.817E-02
DAV:   4    -0.501259398339E+02   -0.16679E-03   -0.17601E-03  1678   0.276E-01    0.567E-02
DAV:   5    -0.501259412205E+02   -0.13866E-05   -0.20354E-05  1752   0.372E-02    0.188E-02
DAV:   6    -0.501259418489E+02   -0.62844E-06   -0.31044E-06  1588   0.151E-02
  10 F= -.50125942E+02 E0= -.50124037E+02  d E =-.363072E-01
       N       E                     dE             d eps       ncg     rms          rms(c)
DAV:   1    -0.501335654859E+02   -0.76243E-02   -0.76923E-01  1570   0.649E+00    0.196E-01
DAV:   2    -0.501339216817E+02   -0.35620E-03   -0.13241E-02  1784   0.837E-01    0.115E-01
DAV:   3    -0.501335467997E+02    0.37488E-03   -0.10441E-03  1726   0.261E-01    0.144E-02
DAV:   4    -0.501335522352E+02   -0.54355E-05   -0.11504E-04  1672   0.771E-02    0.105E-02
DAV:   5    -0.501335519669E+02    0.26835E-06   -0.13265E-06  1230   0.906E-03
  11 F= -.50133552E+02 E0= -.50131304E+02  d E =-.439173E-01
       N       E                     dE             d eps       ncg     rms          rms(c)
DAV:   1    -0.501432666808E+02   -0.97144E-02   -0.46273E+00  1494   0.159E+01    0.564E-01
DAV:   2    -0.501430206021E+02    0.24608E-03   -0.73117E-02  1808   0.198E+00    0.302E-01
DAV:   3    -0.501407693071E+02    0.22513E-02   -0.54351E-03  1690   0.576E-01    0.513E-02
DAV:   4    -0.501408200572E+02   -0.50750E-04   -0.58558E-04  1718   0.164E-01    0.355E-02
DAV:   5    -0.501408208019E+02   -0.74469E-06   -0.94812E-06  1824   0.237E-02
  12 F= -.50140821E+02 E0= -.50134819E+02  d E =-.726884E-02
       N       E                     dE             d eps       ncg     rms          rms(c)
DAV:   1    -0.501531166148E+02   -0.12297E-01   -0.16817E+00  1500   0.967E+00    0.397E-01
DAV:   2    -0.501518841987E+02    0.12324E-02   -0.26861E-02  1798   0.121E+00    0.211E-01
DAV:   3    -0.501506599823E+02    0.12242E-02   -0.31755E-03  1678   0.439E-01    0.284E-02
DAV:   4    -0.501506897193E+02   -0.29737E-04   -0.34082E-04  1690   0.125E-01    0.224E-02
DAV:   5    -0.501506907857E+02   -0.10664E-05   -0.38499E-06  1706   0.159E-02    0.483E-03
DAV:   6    -0.501506911120E+02   -0.32630E-06   -0.35569E-07   872   0.473E-03
  13 F= -.50150691E+02 E0= -.50147427E+02  d E =-.171391E-01
       N       E                     dE             d eps       ncg     rms          rms(c)
DAV:   1    -0.501579784132E+02   -0.72876E-02   -0.66945E+00  1482   0.193E+01    0.656E-01
DAV:   2    -0.501575044894E+02    0.47392E-03   -0.10663E-01  1860   0.237E+00    0.363E-01
DAV:   3    -0.501535442998E+02    0.39602E-02   -0.10102E-02  1666   0.799E-01    0.446E-02
DAV:   4    -0.501536451761E+02   -0.10088E-03   -0.11335E-03  1716   0.229E-01    0.358E-02
DAV:   5    -0.501536449756E+02    0.20059E-06   -0.10388E-05  1866   0.260E-02    0.109E-02
DAV:   6    -0.501536455768E+02   -0.60126E-06   -0.96936E-07  1036   0.794E-03
  14 F= -.50153646E+02 E0= -.50150725E+02  d E =-.200936E-01
       N       E                     dE             d eps       ncg     rms          rms(c)
DAV:   1    -0.501555556850E+02   -0.19107E-02   -0.17102E+00  1470   0.980E+00    0.332E-01
DAV:   2    -0.501553398875E+02    0.21580E-03   -0.27476E-02  1836   0.120E+00    0.179E-01
DAV:   3    -0.501543799319E+02    0.95996E-03   -0.25642E-03  1662   0.401E-01    0.207E-02
DAV:   4    -0.501543987170E+02   -0.18785E-04   -0.27576E-04  1716   0.116E-01    0.161E-02
DAV:   5    -0.501543976478E+02    0.10692E-05   -0.32926E-06  1662   0.140E-02    0.131E-03
DAV:   6    -0.501543976301E+02    0.17704E-07   -0.18416E-07   836   0.308E-03
  15 F= -.50154398E+02 E0= -.50149489E+02  d E =-.208457E-01
       N       E                     dE             d eps       ncg     rms          rms(c)
DAV:   1    -0.501666967456E+02   -0.12299E-01   -0.62901E-01  1432   0.599E+00    0.196E-01
DAV:   2    -0.501666453757E+02    0.51370E-04   -0.84090E-03  1866   0.645E-01    0.107E-01
DAV:   3    -0.501663522247E+02    0.29315E-03   -0.76808E-04  1726   0.217E-01    0.126E-02
DAV:   4    -0.501663585042E+02   -0.62795E-05   -0.79755E-05  1658   0.615E-02    0.952E-03
DAV:   5    -0.501663585884E+02   -0.84157E-07   -0.11267E-06  1070   0.907E-03
  16 F= -.50166359E+02 E0= -.50162428E+02  d E =-.119610E-01
       N       E                     dE             d eps       ncg     rms          rms(c)
DAV:   1    -0.501699390648E+02   -0.35806E-02   -0.56296E+00  1438   0.179E+01    0.492E-01
DAV:   2    -0.501726570816E+02   -0.27180E-02   -0.73346E-02  1896   0.188E+00    0.279E-01
DAV:   3    -0.501709005192E+02    0.17566E-02   -0.43465E-03  1720   0.519E-01    0.302E-02
DAV:   4    -0.501709359803E+02   -0.35461E-04   -0.43241E-04  1672   0.145E-01    0.229E-02
DAV:   5    -0.501709363324E+02   -0.35208E-06   -0.56286E-06  1760   0.193E-02
  17 F= -.50170936E+02 E0= -.50167554E+02  d E =-.165387E-01
       N       E                     dE             d eps       ncg     rms          rms(c)
DAV:   1    -0.501764537015E+02   -0.55177E-02   -0.11633E+00  1456   0.816E+00    0.215E-01
DAV:   2    -0.501771277381E+02   -0.67404E-03   -0.15169E-02  1856   0.850E-01    0.123E-01
DAV:   3    -0.501768071131E+02    0.32062E-03   -0.81344E-04  1720   0.224E-01    0.138E-02
DAV:   4    -0.501768128911E+02   -0.57780E-05   -0.79125E-05  1712   0.629E-02    0.105E-02
DAV:   5    -0.501768126288E+02    0.26234E-06   -0.10198E-06  1052   0.859E-03
  18 F= -.50176813E+02 E0= -.50174057E+02  d E =-.224150E-01
       N       E                     dE             d eps       ncg     rms          rms(c)
DAV:   1    -0.501865072339E+02   -0.96943E-02   -0.17386E-01  1518   0.313E+00    0.102E-01
DAV:   2    -0.501865490445E+02   -0.41811E-04   -0.27580E-03  1816   0.385E-01    0.609E-02
DAV:   3    -0.501864515670E+02    0.97477E-04   -0.25230E-04  1672   0.132E-01    0.737E-03
DAV:   4    -0.501864525149E+02   -0.94791E-06   -0.29121E-05  1702   0.398E-02    0.499E-03
DAV:   5    -0.501864522985E+02    0.21634E-06   -0.37488E-07   872   0.457E-03
  19 F= -.50186452E+02 E0= -.50183545E+02  d E =-.963967E-02
       N       E                     dE             d eps       ncg     rms          rms(c)
DAV:   1    -0.501920225593E+02   -0.55700E-02   -0.42345E-01  1524   0.489E+00    0.164E-01
DAV:   2    -0.501920746115E+02   -0.52052E-04   -0.67287E-03  1810   0.603E-01    0.977E-02
DAV:   3    -0.501918202726E+02    0.25434E-03   -0.66043E-04  1654   0.214E-01    0.114E-02
DAV:   4    -0.501918227582E+02   -0.24856E-05   -0.76358E-05  1704   0.643E-02    0.775E-03
DAV:   5    -0.501918223084E+02    0.44980E-06   -0.97171E-07  1020   0.733E-03
  20 F= -.50191822E+02 E0= -.50188434E+02  d E =-.150097E-01
       N       E                     dE             d eps       ncg     rms          rms(c)
DAV:   1    -0.501921487431E+02   -0.32598E-03   -0.68101E-03  1438   0.625E-01    0.166E-02
DAV:   2    -0.501921517412E+02   -0.29981E-05   -0.79705E-05  1918   0.601E-02    0.927E-03
DAV:   3    -0.501921500711E+02    0.16701E-05   -0.43617E-06  1682   0.161E-02    0.964E-04
DAV:   4    -0.501921501207E+02   -0.49664E-07   -0.38772E-07   836   0.453E-03
  21 F= -.50192150E+02 E0= -.50188819E+02  d E =-.327812E-03
       N       E                     dE             d eps       ncg     rms          rms(c)
DAV:   1    -0.501928101077E+02   -0.66004E-03   -0.61225E-02  1426   0.187E+00    0.495E-02
DAV:   2    -0.501928380614E+02   -0.27954E-04   -0.71712E-04  1918   0.180E-01    0.277E-02
DAV:   3    -0.501928226016E+02    0.15460E-04   -0.38153E-05  1752   0.476E-02    0.294E-03
DAV:   4    -0.501928229274E+02   -0.32581E-06   -0.34506E-06  1414   0.132E-02
  22 F= -.50192823E+02 E0= -.50189510E+02  d E =-.100062E-02
       N       E                     dE             d eps       ncg     rms          rms(c)
DAV:   1    -0.501929919427E+02   -0.16934E-03   -0.24457E-01  1438   0.374E+00    0.964E-02
DAV:   2    -0.501931323109E+02   -0.14037E-03   -0.28400E-03  1906   0.358E-01    0.547E-02
DAV:   3    -0.501930801190E+02    0.52192E-04   -0.12973E-04  1760   0.880E-02    0.687E-03
DAV:   4    -0.501930810308E+02   -0.91178E-06   -0.11388E-05  1662   0.241E-02    0.482E-03
DAV:   5    -0.501930812015E+02   -0.17079E-06   -0.21091E-07   890   0.400E-03
  23 F= -.50193081E+02 E0= -.50189357E+02  d E =-.125889E-02
       N       E                     dE             d eps       ncg     rms          rms(c)
DAV:   1    -0.501933467819E+02   -0.26575E-03   -0.46787E-03  1414   0.513E-01    0.114E-02
DAV:   2    -0.501933508166E+02   -0.40347E-05   -0.57337E-05  1928   0.512E-02    0.637E-03
DAV:   3    -0.501933501837E+02    0.63294E-06   -0.18889E-06  1288   0.104E-02
  24 F= -.50193350E+02 E0= -.50189511E+02  d E =-.268982E-03
       N       E                     dE             d eps       ncg     rms          rms(c)
DAV:   1    -0.501942978513E+02   -0.94703E-03   -0.41767E-02  1414   0.154E+00    0.368E-02
DAV:   2    -0.501943335148E+02   -0.35664E-04   -0.51442E-04  1922   0.153E-01    0.205E-02
DAV:   3    -0.501943277087E+02    0.58060E-05   -0.17820E-05  1632   0.315E-02    0.354E-03
DAV:   4    -0.501943278591E+02   -0.15038E-06   -0.15333E-06  1268   0.856E-03
  25 F= -.50194328E+02 E0= -.50190245E+02  d E =-.124666E-02
       N       E                     dE             d eps       ncg     rms          rms(c)
DAV:   1    -0.501972030578E+02   -0.28753E-02   -0.16690E-01  1408   0.308E+00    0.821E-02
DAV:   2    -0.501973148159E+02   -0.11176E-03   -0.20601E-03  1928   0.308E-01    0.447E-02
DAV:   3    -0.501972823994E+02    0.32416E-04   -0.89987E-05  1652   0.704E-02    0.729E-03
DAV:   4    -0.501972831090E+02   -0.70958E-06   -0.80300E-06  1660   0.193E-02
  26 F= -.50197283E+02 E0= -.50193179E+02  d E =-.420191E-02
       N       E                     dE             d eps       ncg     rms          rms(c)
DAV:   1    -0.502057438249E+02   -0.84614E-02   -0.66639E-01  1408   0.615E+00    0.170E-01
DAV:   2    -0.502060800962E+02   -0.33627E-03   -0.81578E-03  1914   0.615E-01    0.928E-02
DAV:   3    -0.502059141375E+02    0.16596E-03   -0.43723E-04  1672   0.154E-01    0.134E-02
DAV:   4    -0.502059173635E+02   -0.32261E-05   -0.38387E-05  1734   0.422E-02    0.101E-02
DAV:   5    -0.502059171581E+02    0.20543E-06   -0.10698E-06  1036   0.938E-03
  27 F= -.50205917E+02 E0= -.50202380E+02  d E =-.128360E-01
       N       E                     dE             d eps       ncg     rms          rms(c)
DAV:   1    -0.502218320119E+02   -0.15915E-01   -0.26591E+00  1420   0.123E+01    0.287E-01
DAV:   2    -0.502234506181E+02   -0.16186E-02   -0.32085E-02  1888   0.121E+00    0.158E-01
DAV:   3    -0.502229095368E+02    0.54108E-03   -0.13915E-03  1666   0.274E-01    0.197E-02
DAV:   4    -0.502229205802E+02   -0.11043E-04   -0.12049E-04  1728   0.756E-02    0.147E-02
DAV:   5    -0.502229214747E+02   -0.89453E-06   -0.26682E-06  1388   0.141E-02
  28 F= -.50222921E+02 E0= -.50220142E+02  d E =-.298403E-01
       N       E                     dE             d eps       ncg     rms          rms(c)
DAV:   1    -0.501968536683E+02    0.26067E-01   -0.10558E+01  1408   0.245E+01    0.531E-01
DAV:   2    -0.502040429951E+02   -0.71893E-02   -0.12879E-01  1892   0.242E+00    0.294E-01
DAV:   3    -0.502021490010E+02    0.18940E-02   -0.48169E-03  1678   0.500E-01    0.344E-02
DAV:   4    -0.502021919106E+02   -0.42910E-04   -0.41495E-04  1718   0.137E-01    0.239E-02
DAV:   5    -0.502021941810E+02   -0.22704E-05   -0.75457E-06  1714   0.234E-02    0.395E-03
DAV:   6    -0.502021944532E+02   -0.27221E-06   -0.93459E-07  1050   0.728E-03
  29 F= -.50202194E+02 E0= -.50198702E+02  d E =-.911325E-02
       N       E                     dE             d eps       ncg     rms          rms(c)
DAV:   1    -0.502231584928E+02   -0.20964E-01   -0.56618E+00  1420   0.179E+01    0.378E-01
DAV:   2    -0.502269941548E+02   -0.38357E-02   -0.67481E-02  1906   0.175E+00    0.210E-01
DAV:   3    -0.502260027707E+02    0.99138E-03   -0.25275E-03  1684   0.370E-01    0.215E-02
DAV:   4    -0.502260235876E+02   -0.20817E-04   -0.22233E-04  1680   0.101E-01    0.159E-02
DAV:   5    -0.502260233407E+02    0.24688E-06   -0.34156E-06  1610   0.157E-02
  30 F= -.50226023E+02 E0= -.50223495E+02  d E =-.329421E-01
       N       E                     dE             d eps       ncg     rms          rms(c)
DAV:   1    -0.502263265021E+02   -0.30291E-03   -0.86375E-03  1420   0.702E-01    0.153E-02
DAV:   2    -0.502263317390E+02   -0.52370E-05   -0.92516E-05  1924   0.624E-02    0.852E-03
DAV:   3    -0.502263304962E+02    0.12428E-05   -0.33463E-06  1534   0.130E-02    0.817E-04
DAV:   4    -0.502263305369E+02   -0.40747E-07   -0.27115E-07   824   0.370E-03
  31 F= -.50226331E+02 E0= -.50223791E+02  d E =-.307196E-03
       N       E                     dE             d eps       ncg     rms          rms(c)
DAV:   1    -0.502268568627E+02   -0.52637E-03   -0.77483E-02  1420   0.210E+00    0.448E-02
DAV:   2    -0.502269053485E+02   -0.48486E-04   -0.83266E-04  1924   0.187E-01    0.251E-02
DAV:   3    -0.502268938744E+02    0.11474E-04   -0.29823E-05  1694   0.381E-02    0.259E-03
DAV:   4    -0.502268941059E+02   -0.23148E-06   -0.21988E-06  1380   0.103E-02
  32 F= -.50226894E+02 E0= -.50224274E+02  d E =-.870765E-03
       N       E                     dE             d eps       ncg     rms          rms(c)
DAV:   1    -0.502261872815E+02    0.70659E-03   -0.30971E-01  1408   0.420E+00    0.877E-02
DAV:   2    -0.502263870784E+02   -0.19980E-03   -0.33195E-03  1920   0.373E-01    0.493E-02
DAV:   3    -0.502263423965E+02    0.44682E-04   -0.11265E-04  1708   0.743E-02    0.498E-03
DAV:   4    -0.502263431972E+02   -0.80067E-06   -0.83570E-06  1642   0.198E-02
  33 F= -.50226343E+02 E0= -.50223403E+02  d E =-.319856E-03
       N       E                     dE             d eps       ncg     rms          rms(c)
DAV:   1    -0.502268845321E+02   -0.54214E-03   -0.17223E-01  1408   0.313E+00    0.649E-02
DAV:   2    -0.502269940496E+02   -0.10952E-03   -0.18337E-03  1912   0.277E-01    0.365E-02
DAV:   3    -0.502269681726E+02    0.25877E-04   -0.62117E-05  1726   0.550E-02    0.361E-03
DAV:   4    -0.502269684945E+02   -0.32187E-06   -0.44979E-06  1542   0.145E-02
  34 F= -.50226968E+02 E0= -.50224280E+02  d E =-.945154E-03
       N       E                     dE             d eps       ncg     rms          rms(c)
DAV:   1    -0.502276657111E+02   -0.69754E-03   -0.11485E-03  1574   0.256E-01    0.812E-03
DAV:   2    -0.502276659618E+02   -0.25070E-06   -0.16092E-05  1814   0.297E-02    0.490E-03
DAV:   3    -0.502276653594E+02    0.60239E-06   -0.12949E-06  1050   0.979E-03
  35 F= -.50227665E+02 E0= -.50224985E+02  d E =-.696865E-03
       N       E                     dE             d eps       ncg     rms          rms(c)
DAV:   1    -0.502295876400E+02   -0.19217E-02   -0.10291E-02  1574   0.765E-01    0.245E-02
DAV:   2    -0.502295899868E+02   -0.23468E-05   -0.13988E-04  1802   0.874E-02    0.148E-02
DAV:   3    -0.502295849308E+02    0.50559E-05   -0.12100E-05  1712   0.291E-02    0.171E-03
DAV:   4    -0.502295849789E+02   -0.48035E-07   -0.13635E-06  1084   0.876E-03
  36 F= -.50229585E+02 E0= -.50226929E+02  d E =-.261648E-02
       N       E                     dE             d eps       ncg     rms          rms(c)
DAV:   1    -0.502326602588E+02   -0.30753E-02   -0.41146E-02  1574   0.153E+00    0.490E-02
DAV:   2    -0.502326693193E+02   -0.90605E-05   -0.56053E-04  1788   0.175E-01    0.296E-02
DAV:   3    -0.502326490390E+02    0.20280E-04   -0.48816E-05  1692   0.584E-02    0.338E-03
DAV:   4    -0.502326492462E+02   -0.20718E-06   -0.56227E-06  1550   0.176E-02
  37 F= -.50232649E+02 E0= -.50230039E+02  d E =-.568075E-02
       N       E                     dE             d eps       ncg     rms          rms(c)
DAV:   1    -0.502356926490E+02   -0.30436E-02   -0.16486E-01  1568   0.306E+00    0.983E-02
DAV:   2    -0.502357294098E+02   -0.36761E-04   -0.22536E-03  1788   0.351E-01    0.593E-02
DAV:   3    -0.502356478132E+02    0.81597E-04   -0.19747E-04  1674   0.118E-01    0.673E-03
DAV:   4    -0.502356486339E+02   -0.82068E-06   -0.22861E-05  1634   0.354E-02    0.449E-03
DAV:   5    -0.502356485898E+02    0.44117E-07   -0.26736E-07   944   0.385E-03
  38 F= -.50235649E+02 E0= -.50233113E+02  d E =-.868010E-02
       N       E                     dE             d eps       ncg     rms          rms(c)
DAV:   1    -0.502357445010E+02   -0.95867E-04   -0.74574E-03  1568   0.651E-01    0.209E-02
DAV:   2    -0.502357461919E+02   -0.16909E-05   -0.10247E-04  1788   0.749E-02    0.127E-02
DAV:   3    -0.502357425076E+02    0.36843E-05   -0.90164E-06  1680   0.252E-02    0.145E-03
DAV:   4    -0.502357425384E+02   -0.30809E-07   -0.99697E-07   866   0.758E-03
  39 F= -.50235743E+02 E0= -.50233220E+02  d E =-.877404E-02
       N       E                     dE             d eps       ncg     rms          rms(c)
DAV:   1    -0.502358451032E+02   -0.10260E-03   -0.10013E-03  1582   0.232E-01    0.762E-03
DAV:   2    -0.502358455485E+02   -0.44527E-06   -0.17098E-05  1762   0.298E-02    0.469E-03
DAV:   3    -0.502358449981E+02    0.55036E-06   -0.16176E-06  1004   0.110E-02
  40 F= -.50235845E+02 E0= -.50233319E+02  d E =-.102460E-03
       N       E                     dE             d eps       ncg     rms          rms(c)
DAV:   1    -0.502359334638E+02   -0.87915E-04   -0.44354E-03  1582   0.489E-01    0.161E-02
DAV:   2    -0.502359354551E+02   -0.19913E-05   -0.75377E-05  1776   0.627E-02    0.994E-03
DAV:   3    -0.502359330002E+02    0.24549E-05   -0.76328E-06  1686   0.231E-02    0.131E-03
DAV:   4    -0.502359329953E+02    0.49633E-08   -0.84654E-07   806   0.709E-03
  41 F= -.50235933E+02 E0= -.50233395E+02  d E =-.190457E-03
