 vasp.6.2.1 16May21 (build Oct 21 2023 21:03:18) complex                        
  
 executed on             LinuxIFC date 2024.05.28  09:57:51
 running on    2 total cores
 distrk:  each k-point on    2 cores,    1 groups
 distr:  one band on NCORE=   1 cores,    2 groups


--------------------------------------------------------------------------------------------------------


 INCAR:
   PREC = accurate
   ENCUT = 600
   EDIFF = 1e-06
   EDIFFG = 1e-05
   IBRION = 2
   ISIF = 2
   ISYM = 2
   ISMEAR = 0
   SIGMA = 0.1
   LREAL = False
   NPAR = 11
   NSW = 300
   ISTART = 0
   LCHARG = False
   LPLANE = False
   LWAVE = False

 POTCAR:    PAW_PBE C 08Apr2002                   
 -----------------------------------------------------------------------------
|                                                                             |
|           W    W    AA    RRRRR   N    N  II  N    N   GGGG   !!!           |
|           W    W   A  A   R    R  NN   N  II  NN   N  G    G  !!!           |
|           W    W  A    A  R    R  N N  N  II  N N  N  G       !!!           |
|           W WW W  AAAAAA  RRRRR   N  N N  II  N  N N  G  GGG   !            |
|           WW  WW  A    A  R   R   N   NN  II  N   NN  G    G                |
|           W    W  A    A  R    R  N    N  II  N    N   GGGG   !!!           |
|                                                                             |
|     The value NPAR = 11 specified in the INCAR file was overwritten,        |
|     because it was not compatible with the 2 processes available:           |
|     NPAR = 2                                                                |
|     was used instead, please check that this makes sense for your           |
|     machine.                                                                |
|                                                                             |
 -----------------------------------------------------------------------------

 POTCAR:    PAW_PBE C 08Apr2002                   
   SHA256 =  253f7b50bb8d59471dbedb8285d89021f4a42ed1a2c5d38a03a736e69125dd95 C/POTCAR              
   COPYR  = (c) Copyright 08Apr2002 Georg Kresse                                                    
   COPYR  = This file is part of the software VASP. Any use, copying, and all other rights are regul
   COPYR  = If you do not have a valid VASP license, you may not use, copy or distribute this file. 
   VRHFIN =C: s2p2                                                                                  
   LEXCH  = PE                                                                                      
   EATOM  =   147.1560 eV,   10.8157 Ry                                                             
                                                                                                    
   TITEL  = PAW_PBE C 08Apr2002                                                                     
   LULTRA =        F    use ultrasoft PP ?                                                          
   IUNSCR =        1    unscreen: 0-lin 1-nonlin 2-no                                               
   RPACOR =    1.200    partial core radius                                                         
   POMASS =   12.011; ZVAL   =    4.000    mass and valenz                                          
   RCORE  =    1.500    outmost cutoff radius                                                       
   RWIGS  =    1.630; RWIGS  =    0.863    wigner-seitz radius (au A)                               
   ENMAX  =  400.000; ENMIN  =  300.000 eV                                                          
   ICORE  =        2    local potential                                                             
   LCOR   =        T    correct aug charges                                                         
   LPAW   =        T    paw PP                                                                      
   EAUG   =  644.873                                                                                
   DEXC   =    0.000                                                                                
   RMAX   =    1.529    core radius for proj-oper                                                   
   RAUG   =    1.300    factor for augmentation sphere                                              
   RDEP   =    1.501    radius for radial grids                                                     
   RDEPT  =    1.300    core radius for aug-charge                                                  
                                                                                                    
   Atomic configuration                                                                             
    4 entries                                                                                       
     n  l   j            E        occ.                                                              
     1  0  0.50      -273.3789   2.0000                                                             
     2  0  0.50       -13.7508   2.0000                                                             
     2  1  0.50        -5.2854   2.0000                                                             
     3  2  1.50        -5.4423   0.0000                                                             
   Description                                                                                      
     l       E           TYP  RCUT    TYP  RCUT                                                     
     0    -13.7508458     23  1.200                                                                 
     0     -8.2022199     23  1.200                                                                 
     1     -5.2854383     23  1.500                                                                 
     1     34.0145650     23  1.500                                                                 
     2     -5.4423304      7  1.500                                                                 
  local pseudopotential read in
  partial core-charges read in
  partial kinetic energy density read in
  atomic valenz-charges read in
  non local Contribution for L=           0  read in
    real space projection operators read in
  non local Contribution for L=           0  read in
    real space projection operators read in
  non local Contribution for L=           1  read in
    real space projection operators read in
  non local Contribution for L=           1  read in
    real space projection operators read in
    PAW grid and wavefunctions read in
 
   number of l-projection  operators is LMAX  =           4
   number of lm-projection operators is LMMAX =           8
 
  PAW_PBE C 08Apr2002                   :
 energy of atom  1       EATOM= -147.1560
 kinetic energy error for atom=    0.0057 (will be added to EATOM!!)
 
 
 POSCAR:  C
  positions in direct lattice
  No initial velocities read in
 exchange correlation table for  LEXCH =        8
   RHO(1)=    0.500       N(1)  =     2000
   RHO(2)=  100.500       N(2)  =     4000
 


--------------------------------------------------------------------------------------------------------


 ion  position               nearest neighbor table
   1  0.125  0.125  0.625-   4 1.32   6 1.37   2 1.53   8 1.65   7 1.83   7 1.83
   2  0.375  0.375  0.875-   3 1.32   5 1.37   1 1.53   7 1.65   8 1.83   8 1.83
   3  0.125  0.625  0.125-   2 1.32   8 1.37   4 1.53   6 1.65   5 1.83   5 1.83
   4  0.375  0.875  0.375-   1 1.32   7 1.37   3 1.53   5 1.65   6 1.83   6 1.83
   5  0.625  0.125  0.125-   8 1.32   2 1.37   6 1.53   4 1.65   3 1.83   3 1.83
   6  0.875  0.375  0.375-   7 1.32   1 1.37   5 1.53   3 1.65   4 1.83   4 1.83
   7  0.625  0.625  0.625-   6 1.32   4 1.37   8 1.53   2 1.65   1 1.83   1 1.83
   8  0.875  0.875  0.875-   5 1.32   3 1.37   7 1.53   1 1.65   2 1.83   2 1.83
 
  LATTYP: Found a triclinic cell.
 ALAT       =     3.3983840622
 B/A-ratio  =     2.2382880488
 C/A-ratio  =     2.8427079673
 COS(alpha) =     0.0024855552
 COS(beta)  =     0.5000520724
 COS(gamma) =     0.8557147110
  
  Lattice vectors:
  
 A1 = (   2.9128698226,  -0.4972394013,   1.6783791611)
 A2 = (   6.1760973435,  -4.2767585588,   1.1937126357)
 A3 = (   4.2299117498,   7.3550694339,   4.6193346309)


Analysis of symmetry for initial positions (statically):
=====================================================================
 Subroutine PRICEL returns following result:
 
  LATTYP: Found a triclinic cell.
 ALAT       =     3.3983840622
 B/A-ratio  =     1.0902031858
 C/A-ratio  =     1.2606513380
 COS(alpha) =     0.0058342573
 COS(beta)  =     0.6302345480
 COS(gamma) =     0.7627761507
  
  Lattice vectors:
  
 A1 = (   2.9128698226,  -0.4972394013,   1.6783791611)
 A2 = (   2.0791700098,  -2.7822539408,   1.2894242694)
 A3 = (   3.2990133860,   2.6802695002,   0.5355765206)
 
   4 primitive cells build up your supercell.
 

 Routine SETGRP: Setting up the symmetry group for a 
 triclinic supercell.


 Subroutine GETGRP returns: Found  2 space group operations
 (whereof  1 operations were pure point group operations)
 out of a pool of  2 trial point group operations.


The static configuration has the point symmetry C_1 .
 The point group associated with its full space group is S_2 .


Analysis of symmetry for dynamics (positions and initial velocities):
=====================================================================
 Subroutine PRICEL returns following result:
 
  LATTYP: Found a triclinic cell.
 ALAT       =     3.3983840622
 B/A-ratio  =     1.0902031858
 C/A-ratio  =     1.2606513380
 COS(alpha) =     0.0058342573
 COS(beta)  =     0.6302345480
 COS(gamma) =     0.7627761507
  
  Lattice vectors:
  
 A1 = (   2.9128698226,  -0.4972394013,   1.6783791611)
 A2 = (   2.0791700098,  -2.7822539408,   1.2894242694)
 A3 = (   3.2990133860,   2.6802695002,   0.5355765206)
 
   4 primitive cells build up your supercell.
 

 Routine SETGRP: Setting up the symmetry group for a 
 triclinic supercell.


 Subroutine GETGRP returns: Found  2 space group operations
 (whereof  1 operations were pure point group operations)
 out of a pool of  2 trial point group operations.


The dynamic configuration has the point symmetry C_1 .
 The point group associated with its full space group is S_2 .


Analysis of constrained symmetry for selective dynamics:
=====================================================================
 Subroutine PRICEL returns following result:
 
  LATTYP: Found a triclinic cell.
 ALAT       =     3.3983840622
 B/A-ratio  =     1.0902031858
 C/A-ratio  =     1.2606513380
 COS(alpha) =     0.0058342573
 COS(beta)  =     0.6302345480
 COS(gamma) =     0.7627761507
  
  Lattice vectors:
  
 A1 = (   2.9128698226,  -0.4972394013,   1.6783791611)
 A2 = (   2.0791700098,  -2.7822539408,   1.2894242694)
 A3 = (   3.2990133860,   2.6802695002,   0.5355765206)
 
   4 primitive cells build up your supercell.
 

 Routine SETGRP: Setting up the symmetry group for a 
 triclinic supercell.


 Subroutine GETGRP returns: Found  2 space group operations
 (whereof  1 operations were pure point group operations)
 out of a pool of  2 trial point group operations.


The constrained configuration has the point symmetry C_1 .
 The point group associated with its full space group is S_2 .


 Subroutine INISYM returns: Found  2 space group operations
 (whereof  1 operations are pure point group operations),
 and found     4 'primitive' translations


----------------------------------------------------------------------------------------

                                     Primitive cell                                     

  volume of cell :       8.7896

  direct lattice vectors                    reciprocal lattice vectors
     2.912869823 -0.497239401  1.678379161    -0.562721196  0.357270008  1.678275316
     2.079170010 -2.782253941  1.289424269     0.542095063 -0.452456812 -1.074865409
     3.299013386  2.680269500  0.535576521     0.458326662 -0.030295843 -0.804413104

  length of vectors
     3.398384062  3.704929131  4.284177415     1.805797618  1.286048161  0.926316150

  position of ions in fractional coordinates (direct lattice)
     0.625000000  0.750000000  0.500000000
     0.875000000  0.250000000  0.500000000

  ion indices of the primitive-cell ions
   primitive index   ion index
                 1           1
                 2           2

----------------------------------------------------------------------------------------

 
 
 KPOINTS: KPOINTS created by Atomic Simulation Env

Automatic generation of k-mesh.
 Grid dimensions read from file:
 generate k-points for:    4    4    4

 Generating k-lattice:

  Cartesian coordinates                     Fractional coordinates (reciprocal lattice)
     0.046819783  0.048983141 -0.066745100     0.250000000 -0.000000000 -0.000000000
     0.052134299 -0.027583681  0.050300839    -0.000000000  0.250000000  0.000000000
     0.010471050 -0.052770121 -0.033806538    -0.000000000 -0.000000000  0.250000000

  Length of vectors
     0.095112294  0.077517863  0.063539048

  Shift w.r.t. Gamma in fractional coordinates (k-lattice)
     0.500000000  0.500000000  0.500000000

 
 Subroutine IBZKPT returns following result:
 ===========================================
 
 Found     32 irreducible k-points:
 
 Following reciprocal coordinates:
            Coordinates               Weight
  0.125000  0.125000  0.125000      2.000000
  0.375000  0.125000  0.125000      2.000000
 -0.375000  0.125000  0.125000      2.000000
 -0.125000  0.125000  0.125000      2.000000
  0.125000  0.375000  0.125000      2.000000
  0.375000  0.375000  0.125000      2.000000
 -0.375000  0.375000  0.125000      2.000000
 -0.125000  0.375000  0.125000      2.000000
  0.125000 -0.375000  0.125000      2.000000
  0.375000 -0.375000  0.125000      2.000000
 -0.375000 -0.375000  0.125000      2.000000
 -0.125000 -0.375000  0.125000      2.000000
  0.125000 -0.125000  0.125000      2.000000
  0.375000 -0.125000  0.125000      2.000000
 -0.375000 -0.125000  0.125000      2.000000
 -0.125000 -0.125000  0.125000      2.000000
  0.125000  0.125000  0.375000      2.000000
  0.375000  0.125000  0.375000      2.000000
 -0.375000  0.125000  0.375000      2.000000
 -0.125000  0.125000  0.375000      2.000000
  0.125000  0.375000  0.375000      2.000000
  0.375000  0.375000  0.375000      2.000000
 -0.375000  0.375000  0.375000      2.000000
 -0.125000  0.375000  0.375000      2.000000
  0.125000 -0.375000  0.375000      2.000000
  0.375000 -0.375000  0.375000      2.000000
 -0.375000 -0.375000  0.375000      2.000000
 -0.125000 -0.375000  0.375000      2.000000
  0.125000 -0.125000  0.375000      2.000000
  0.375000 -0.125000  0.375000      2.000000
 -0.375000 -0.125000  0.375000      2.000000
 -0.125000 -0.125000  0.375000      2.000000
 
 Following cartesian coordinates:
            Coordinates               Weight
  0.054713 -0.015685 -0.025125      2.000000
  0.101532  0.033298 -0.091870      2.000000
 -0.038927 -0.113652  0.108365      2.000000
  0.007893 -0.064668  0.041620      2.000000
  0.106847 -0.043269  0.025175      2.000000
  0.153667  0.005714 -0.041570      2.000000
  0.013207 -0.141235  0.158666      2.000000
  0.060027 -0.092252  0.091921      2.000000
 -0.049556  0.039482 -0.125727      2.000000
 -0.002736  0.088465 -0.192472      2.000000
 -0.143196 -0.058484  0.007763      2.000000
 -0.096376 -0.009501 -0.058982      2.000000
  0.002578  0.011898 -0.075426      2.000000
  0.049398  0.060881 -0.142171      2.000000
 -0.091061 -0.086068  0.058064      2.000000
 -0.044242 -0.037085 -0.008681      2.000000
  0.065184 -0.068455 -0.058932      2.000000
  0.112003 -0.019472 -0.125677      2.000000
 -0.028456 -0.166422  0.074558      2.000000
  0.018364 -0.117439  0.007813      2.000000
  0.117318 -0.096039 -0.008631      2.000000
  0.164138 -0.047056 -0.075376      2.000000
  0.023678 -0.194005  0.124859      2.000000
  0.070498 -0.145022  0.058114      2.000000
 -0.039085 -0.013288 -0.159534      2.000000
  0.007735  0.035695 -0.226279      2.000000
 -0.132725 -0.111254 -0.026043      2.000000
 -0.085905 -0.062271 -0.092789      2.000000
  0.013049 -0.040872 -0.109233      2.000000
  0.059869  0.008111 -0.175978      2.000000
 -0.080590 -0.138838  0.024257      2.000000
 -0.033770 -0.089855 -0.042488      2.000000
 


--------------------------------------------------------------------------------------------------------




 Dimension of arrays:
   k-points           NKPTS =     32   k-points in BZ     NKDIM =     32   number of bands    NBANDS=     22
   number of dos      NEDOS =    301   number of ions     NIONS =      8
   non local maximal  LDIM  =      4   non local SUM 2l+1 LMDIM =      8
   total plane-waves  NPLWV =  21504
   max r-space proj   IRMAX =      1   max aug-charges    IRDMAX=   7416
   dimension x,y,z NGX =    24 NGY =   28 NGZ =   32
   dimension x,y,z NGXF=    48 NGYF=   56 NGZF=   64
   support grid    NGXF=    48 NGYF=   56 NGZF=   64
   ions per type =               8
   NGX,Y,Z   is equivalent  to a cutoff of  14.43, 13.70, 13.48 a.u.
   NGXF,Y,Z  is equivalent  to a cutoff of  28.85, 27.39, 26.96 a.u.

 SYSTEM =  unknown system                          
 POSCAR =   C                                      

 Startparameter for this run:
   NWRITE =      2    write-flag & timer
   PREC   = accura    normal or accurate (medium, high low for compatibility)
   ISTART =      0    job   : 0-new  1-cont  2-samecut
   ICHARG =      2    charge: 1-file 2-atom 10-const
   ISPIN  =      1    spin polarized calculation?
   LNONCOLLINEAR =      F non collinear calculations
   LSORBIT =      F    spin-orbit coupling
   INIWAV =      1    electr: 0-lowe 1-rand  2-diag
   LASPH  =      F    aspherical Exc in radial PAW
 Electronic Relaxation 1
   ENCUT  =  600.0 eV  44.10 Ry    6.64 a.u.   5.52  6.79  7.88*2*pi/ulx,y,z
   ENINI  =  600.0     initial cutoff
   ENAUG  =  644.9 eV  augmentation charge cutoff
   NELM   =     60;   NELMIN=  2; NELMDL= -5     # of ELM steps 
   EDIFF  = 0.1E-05   stopping-criterion for ELM
   LREAL  =      F    real-space projection
   NLSPLINE    = F    spline interpolate recip. space projectors
   LCOMPAT=      F    compatible to vasp.4.4
   GGA_COMPAT  = T    GGA compatible to vasp.4.4-vasp.4.6
   LMAXPAW     = -100 max onsite density
   LMAXMIX     =    2 max onsite mixed and CHGCAR
   VOSKOWN=      0    Vosko Wilk Nusair interpolation
   ROPT   =    0.00000
 Ionic relaxation
   EDIFFG = 0.1E-04   stopping-criterion for IOM
   NSW    =    300    number of steps for IOM
   NBLOCK =      1;   KBLOCK =    300    inner block; outer block 
   IBRION =      2    ionic relax: 0-MD 1-quasi-New 2-CG
   NFREE  =      1    steps in history (QN), initial steepest desc. (CG)
   ISIF   =      2    stress and relaxation
   IWAVPR =     11    prediction:  0-non 1-charg 2-wave 3-comb
   ISYM   =      2    0-nonsym 1-usesym 2-fastsym
   LCORR  =      T    Harris-Foulkes like correction to forces

   POTIM  = 0.5000    time-step for ionic-motion
   TEIN   =    0.0    initial temperature
   TEBEG  =    0.0;   TEEND  =   0.0 temperature during run
   SMASS  =  -3.00    Nose mass-parameter (am)
   estimated Nose-frequenzy (Omega)   =  0.10E-29 period in steps = 0.13E+47 mass=  -0.175E-27a.u.
   SCALEE = 1.0000    scale energy and forces
   NPACO  =    256;   APACO  = 16.0  distance and # of slots for P.C.
   PSTRESS=    0.0 pullay stress

  Mass of Ions in am
   POMASS =  12.01
  Ionic Valenz
   ZVAL   =   4.00
  Atomic Wigner-Seitz radii
   RWIGS  =  -1.00
  virtual crystal weights 
   VCA    =   1.00
   NELECT =      32.0000    total number of electrons
   NUPDOWN=      -1.0000    fix difference up-down

 DOS related values:
   EMIN   =  10.00;   EMAX   =-10.00  energy-range for DOS
   EFERMI =   0.00
   ISMEAR =     0;   SIGMA  =   0.10  broadening in eV -4-tet -1-fermi 0-gaus

 Electronic relaxation 2 (details)
   IALGO  =     38    algorithm
   LDIAG  =      T    sub-space diagonalisation (order eigenvalues)
   LSUBROT=      F    optimize rotation matrix (better conditioning)
   TURBO    =      0    0=normal 1=particle mesh
   IRESTART =      0    0=no restart 2=restart with 2 vectors
   NREBOOT  =      0    no. of reboots
   NMIN     =      0    reboot dimension
   EREF     =   0.00    reference energy to select bands
   IMIX   =      4    mixing-type and parameters
     AMIX     =   0.40;   BMIX     =  1.00
     AMIX_MAG =   1.60;   BMIX_MAG =  1.00
     AMIN     =   0.10
     WC   =   100.;   INIMIX=   1;  MIXPRE=   1;  MAXMIX= -45

 Intra band minimization:
   WEIMIN = 0.0010     energy-eigenvalue tresh-hold
   EBREAK =  0.11E-07  absolut break condition
   DEPER  =   0.30     relativ break condition  

   TIME   =   0.40     timestep for ELM

  volume/ion in A,a.u.               =       4.39        29.66
  Fermi-wavevector in a.u.,A,eV,Ry     =   1.586528  2.998104 34.246851  2.517073
  Thomas-Fermi vector in A             =   2.685826
 
 Write flags
   LWAVE        =      F    write WAVECAR
   LDOWNSAMPLE  =      F    k-point downsampling of WAVECAR
   LCHARG       =      F    write CHGCAR
   LVTOT        =      F    write LOCPOT, total local potential
   LVHAR        =      F    write LOCPOT, Hartree potential only
   LELF         =      F    write electronic localiz. function (ELF)
   LORBIT       =      0    0 simple, 1 ext, 2 COOP (PROOUT), +10 PAW based schemes


 Dipole corrections
   LMONO  =      F    monopole corrections only (constant potential shift)
   LDIPOL =      F    correct potential (dipole corrections)
   IDIPOL =      0    1-x, 2-y, 3-z, 4-all directions 
   EPSILON=  1.0000000 bulk dielectric constant

 Exchange correlation treatment:
   GGA     =    --    GGA type
   LEXCH   =     8    internal setting for exchange type
   VOSKOWN=      0    Vosko Wilk Nusair interpolation
   LHFCALC =     F    Hartree Fock is set to
   LHFONE  =     F    Hartree Fock one center treatment
   AEXX    =    0.0000 exact exchange contribution

 Linear response parameters
   LEPSILON=     F    determine dielectric tensor
   LRPA    =     F    only Hartree local field effects (RPA)
   LNABLA  =     F    use nabla operator in PAW spheres
   LVEL    =     F    velocity operator in full k-point grid
   LINTERFAST=   F  fast interpolation
   KINTER  =     0    interpolate to denser k-point grid
   CSHIFT  =0.1000    complex shift for real part using Kramers Kronig
   OMEGAMAX=  -1.0    maximum frequency
   DEG_THRESHOLD= 0.2000000E-02 threshold for treating states as degnerate
   RTIME   =   -0.100 relaxation time in fs
  (WPLASMAI=    0.000 imaginary part of plasma frequency in eV, 0.658/RTIME)
   DFIELD  = 0.0000000 0.0000000 0.0000000 field for delta impulse in time
 
 Orbital magnetization related:
   ORBITALMAG=     F  switch on orbital magnetization
   LCHIMAG   =     F  perturbation theory with respect to B field
   DQ        =  0.001000  dq finite difference perturbation B field
   LLRAUG    =     F  two centre corrections for induced B field



--------------------------------------------------------------------------------------------------------


 conjugate gradient relaxation of ions
   using selective dynamics as specified on POSCAR
 charge density and potential will be updated during run
 non-spin polarized calculation
 Variant of blocked Davidson
 Davidson routine will perform the subspace rotation
 perform sub-space diagonalisation
    after iterative eigenvector-optimisation
 modified Broyden-mixing scheme, WC =      100.0
 initial mixing is a Kerker type mixing with AMIX =  0.4000 and BMIX =      1.0000
 Hartree-type preconditioning will be used
 using additional bands            6
 reciprocal scheme for non local part
 use partial core corrections
 calculate Harris-corrections to forces 
   (improved forces if not selfconsistent)
 use gradient corrections 
 use of overlap-Matrix (Vanderbilt PP)
 Gauss-broadening in eV      SIGMA  =   0.10


--------------------------------------------------------------------------------------------------------


  energy-cutoff  :      600.00
  volume of cell :       35.16
      direct lattice vectors                 reciprocal lattice vectors
     2.017757324  1.287749323 -1.385135903     0.187279131  0.195932563 -0.266980399
     2.912869823 -0.497239401  1.678379161     0.208537198 -0.110334725  0.201203354
     0.350357698 -3.282279756 -2.163045686     0.041884200 -0.211080485 -0.135226153

  length of vectors
     2.765545951  3.398384062  3.946501939     0.380449176  0.310071450  0.254156191


 
 k-points in units of 2pi/SCALE and weight: KPOINTS created by Atomic Simulation Env
   0.05471257 -0.01568533 -0.02512540       0.031
   0.10153235  0.03329781 -0.09187050       0.031
  -0.03892700 -0.11365161  0.10836480       0.031
   0.00789278 -0.06466847  0.04161970       0.031
   0.10684687 -0.04326901  0.02517544       0.031
   0.15366665  0.00571413 -0.04156966       0.031
   0.01320730 -0.14123529  0.15866564       0.031
   0.06002708 -0.09225215  0.09192054       0.031
  -0.04955603  0.03948203 -0.12572708       0.031
  -0.00273625  0.08846517 -0.19247218       0.031
  -0.14319560 -0.05848425  0.00776312       0.031
  -0.09637582 -0.00950111 -0.05898198       0.031
   0.00257827  0.01189835 -0.07542624       0.031
   0.04939805  0.06088149 -0.14217134       0.031
  -0.09106130 -0.08606793  0.05806396       0.031
  -0.04424152 -0.03708479 -0.00868114       0.031
   0.06518362 -0.06845545 -0.05893194       0.031
   0.11200340 -0.01947231 -0.12567704       0.031
  -0.02845595 -0.16642173  0.07455826       0.031
   0.01836383 -0.11743859  0.00781316       0.031
   0.11731792 -0.09603913 -0.00863110       0.031
   0.16413770 -0.04705599 -0.07537620       0.031
   0.02367835 -0.19400541  0.12485910       0.031
   0.07049813 -0.14502227  0.05811400       0.031
  -0.03908498 -0.01328809 -0.15953362       0.031
   0.00773480  0.03569505 -0.22627871       0.031
  -0.13272455 -0.11125437 -0.02604342       0.031
  -0.08590477 -0.06227123 -0.09278852       0.031
   0.01304932 -0.04087177 -0.10923278       0.031
   0.05986910  0.00811137 -0.17597788       0.031
  -0.08059025 -0.13883805  0.02425742       0.031
  -0.03377047 -0.08985491 -0.04248768       0.031
 
 k-points in reciprocal lattice and weights: KPOINTS created by Atomic Simulation Env
   0.12500000  0.12500000  0.12500000       0.031
   0.37500000  0.12500000  0.12500000       0.031
  -0.37500000  0.12500000  0.12500000       0.031
  -0.12500000  0.12500000  0.12500000       0.031
   0.12500000  0.37500000  0.12500000       0.031
   0.37500000  0.37500000  0.12500000       0.031
  -0.37500000  0.37500000  0.12500000       0.031
  -0.12500000  0.37500000  0.12500000       0.031
   0.12500000 -0.37500000  0.12500000       0.031
   0.37500000 -0.37500000  0.12500000       0.031
  -0.37500000 -0.37500000  0.12500000       0.031
  -0.12500000 -0.37500000  0.12500000       0.031
   0.12500000 -0.12500000  0.12500000       0.031
   0.37500000 -0.12500000  0.12500000       0.031
  -0.37500000 -0.12500000  0.12500000       0.031
  -0.12500000 -0.12500000  0.12500000       0.031
   0.12500000  0.12500000  0.37500000       0.031
   0.37500000  0.12500000  0.37500000       0.031
  -0.37500000  0.12500000  0.37500000       0.031
  -0.12500000  0.12500000  0.37500000       0.031
   0.12500000  0.37500000  0.37500000       0.031
   0.37500000  0.37500000  0.37500000       0.031
  -0.37500000  0.37500000  0.37500000       0.031
  -0.12500000  0.37500000  0.37500000       0.031
   0.12500000 -0.37500000  0.37500000       0.031
   0.37500000 -0.37500000  0.37500000       0.031
  -0.37500000 -0.37500000  0.37500000       0.031
  -0.12500000 -0.37500000  0.37500000       0.031
   0.12500000 -0.12500000  0.37500000       0.031
   0.37500000 -0.12500000  0.37500000       0.031
  -0.37500000 -0.12500000  0.37500000       0.031
  -0.12500000 -0.12500000  0.37500000       0.031
 
 position of ions in fractional coordinates (direct lattice) 
   0.12500000  0.12500000  0.62500000
   0.37500000  0.37500000  0.87500000
   0.12500000  0.62500000  0.12500000
   0.37500000  0.87500000  0.37500000
   0.62500000  0.12500000  0.12500000
   0.87500000  0.37500000  0.37500000
   0.62500000  0.62500000  0.62500000
   0.87500000  0.87500000  0.87500000
 
 position of ions in cartesian coordinates  (Angst):
   0.83530195 -1.95261111 -1.31524815
   2.15554817 -2.57555357 -1.78269875
   2.11655802 -0.56009093  0.60546428
   3.43680423 -1.18303339  0.13801367
   1.66900177  0.33240343 -0.92629326
   2.98924798 -0.29053903 -1.39374386
   3.30061553 -1.55735615 -1.16862652
   4.62086174 -2.18029861 -1.63607712
 


--------------------------------------------------------------------------------------------------------


 k-point   1 :   0.1250 0.1250 0.1250  plane waves:    1174
 k-point   2 :   0.3750 0.1250 0.1250  plane waves:    1168
 k-point   3 :  -0.3750 0.1250 0.1250  plane waves:    1172
 k-point   4 :  -0.1250 0.1250 0.1250  plane waves:    1172
 k-point   5 :   0.1250 0.3750 0.1250  plane waves:    1172
 k-point   6 :   0.3750 0.3750 0.1250  plane waves:    1175
 k-point   7 :  -0.3750 0.3750 0.1250  plane waves:    1169
 k-point   8 :  -0.1250 0.3750 0.1250  plane waves:    1183
 k-point   9 :   0.1250-0.3750 0.1250  plane waves:    1176
 k-point  10 :   0.3750-0.3750 0.1250  plane waves:    1163
 k-point  11 :  -0.3750-0.3750 0.1250  plane waves:    1176
 k-point  12 :  -0.1250-0.3750 0.1250  plane waves:    1182
 k-point  13 :   0.1250-0.1250 0.1250  plane waves:    1166
 k-point  14 :   0.3750-0.1250 0.1250  plane waves:    1166
 k-point  15 :  -0.3750-0.1250 0.1250  plane waves:    1167
 k-point  16 :  -0.1250-0.1250 0.1250  plane waves:    1171
 k-point  17 :   0.1250 0.1250 0.3750  plane waves:    1174
 k-point  18 :   0.3750 0.1250 0.3750  plane waves:    1181
 k-point  19 :  -0.3750 0.1250 0.3750  plane waves:    1171
 k-point  20 :  -0.1250 0.1250 0.3750  plane waves:    1171
 k-point  21 :   0.1250 0.3750 0.3750  plane waves:    1172
 k-point  22 :   0.3750 0.3750 0.3750  plane waves:    1182
 k-point  23 :  -0.3750 0.3750 0.3750  plane waves:    1171
 k-point  24 :  -0.1250 0.3750 0.3750  plane waves:    1175
 k-point  25 :   0.1250-0.3750 0.3750  plane waves:    1179
 k-point  26 :   0.3750-0.3750 0.3750  plane waves:    1162
 k-point  27 :  -0.3750-0.3750 0.3750  plane waves:    1169
 k-point  28 :  -0.1250-0.3750 0.3750  plane waves:    1175
 k-point  29 :   0.1250-0.1250 0.3750  plane waves:    1184
 k-point  30 :   0.3750-0.1250 0.3750  plane waves:    1168
 k-point  31 :  -0.3750-0.1250 0.3750  plane waves:    1171
 k-point  32 :  -0.1250-0.1250 0.3750  plane waves:    1184

 maximum and minimum number of plane-waves per node :      1184     1162

 maximum number of plane-waves:      1184
 maximum index in each direction: 
   IXMAX=    5   IYMAX=    7   IZMAX=    7
   IXMIN=   -5   IYMIN=   -7   IZMIN=   -8


 serial   3D FFT for wavefunctions

 total amount of memory used by VASP MPI-rank0    47771. kBytes
=======================================================================

   base      :      30000. kBytes
   nonl-proj :       2576. kBytes
   fftplans  :       3058. kBytes
   grid      :       5085. kBytes
   one-center:         24. kBytes
   wavefun   :       7028. kBytes
 
     INWAV:  cpu time    0.0000: real time    0.0000
 Broyden mixing: mesh for mixing (old mesh)
   NGX = 11   NGY = 13   NGZ = 15
  (NGX  = 48   NGY  = 56   NGZ  = 64)
  gives a total of   2145 points

 initial charge density was supplied:
 charge density of overlapping atoms calculated
 number of electron      32.0000000 magnetization 
 keeping initial charge density in first step


--------------------------------------------------------------------------------------------------------


 Maximum index for augmentation-charges         3495 (set IRDMAX)


--------------------------------------------------------------------------------------------------------


 First call to EWALD:  gamma=   0.541
 Maximum number of real-space cells 3x 3x 2
 Maximum number of reciprocal cells 2x 3x 3

    FEWALD:  cpu time    0.0013: real time    0.0013


--------------------------------------- Iteration      1(   1)  ---------------------------------------


    POTLOK:  cpu time    0.0455: real time    0.0455
    SETDIJ:  cpu time    0.0052: real time    0.0052
     EDDAV:  cpu time    0.9912: real time    0.9915
       DOS:  cpu time    0.0022: real time    0.0022
    --------------------------------------------
      LOOP:  cpu time    1.0441: real time    1.0445

 eigenvalue-minimisations  :  1408
 total energy-change (2. order) : 0.1137576E+03  (-0.1956449E+04)
 number of electron      32.0000000 magnetization 
 augmentation part       32.0000000 magnetization 

 Free energy of the ion-electron system (eV)
  ---------------------------------------------------
  alpha Z        PSCENC =       149.53377724
  Ewald energy   TEWEN  =     -1508.91019654
  -Hartree energ DENC   =       -55.68242493
  -exchange      EXHF   =         0.00000000
  -V(xc)+E(xc)   XCENC  =       116.67036618
  PAW double counting   =       868.17637104     -872.73161751
  entropy T*S    EENTRO =        -0.00421722
  eigenvalues    EBANDS =       239.50323819
  atomic energy  EATOM  =      1177.20230207
  Solvation  Ediel_sol  =         0.00000000
  ---------------------------------------------------
  free energy    TOTEN  =       113.75759852 eV

  energy without entropy =      113.76181574  energy(sigma->0) =      113.75970713


--------------------------------------------------------------------------------------------------------




--------------------------------------- Iteration      1(   2)  ---------------------------------------


     EDDAV:  cpu time    0.7242: real time    0.7244
       DOS:  cpu time    0.0007: real time    0.0007
    --------------------------------------------
      LOOP:  cpu time    0.7248: real time    0.7250

 eigenvalue-minimisations  :  1804
 total energy-change (2. order) :-0.1603811E+03  (-0.1494663E+03)
 number of electron      32.0000000 magnetization 
 augmentation part       32.0000000 magnetization 

 Free energy of the ion-electron system (eV)
  ---------------------------------------------------
  alpha Z        PSCENC =       149.53377724
  Ewald energy   TEWEN  =     -1508.91019654
  -Hartree energ DENC   =       -55.68242493
  -exchange      EXHF   =         0.00000000
  -V(xc)+E(xc)   XCENC  =       116.67036618
  PAW double counting   =       868.17637104     -872.73161751
  entropy T*S    EENTRO =        -0.00730626
  eigenvalues    EBANDS =        79.12521031
  atomic energy  EATOM  =      1177.20230207
  Solvation  Ediel_sol  =         0.00000000
  ---------------------------------------------------
  free energy    TOTEN  =       -46.62351841 eV

  energy without entropy =      -46.61621214  energy(sigma->0) =      -46.61986527


--------------------------------------------------------------------------------------------------------




--------------------------------------- Iteration      1(   3)  ---------------------------------------


     EDDAV:  cpu time    0.6684: real time    0.6687
       DOS:  cpu time    0.0007: real time    0.0007
    --------------------------------------------
      LOOP:  cpu time    0.6691: real time    0.6694

 eigenvalue-minimisations  :  1848
 total energy-change (2. order) :-0.6123247E+01  (-0.5932628E+01)
 number of electron      32.0000000 magnetization 
 augmentation part       32.0000000 magnetization 

 Free energy of the ion-electron system (eV)
  ---------------------------------------------------
  alpha Z        PSCENC =       149.53377724
  Ewald energy   TEWEN  =     -1508.91019654
  -Hartree energ DENC   =       -55.68242493
  -exchange      EXHF   =         0.00000000
  -V(xc)+E(xc)   XCENC  =       116.67036618
  PAW double counting   =       868.17637104     -872.73161751
  entropy T*S    EENTRO =        -0.00872527
  eigenvalues    EBANDS =        73.00338214
  atomic energy  EATOM  =      1177.20230207
  Solvation  Ediel_sol  =         0.00000000
  ---------------------------------------------------
  free energy    TOTEN  =       -52.74676558 eV

  energy without entropy =      -52.73804031  energy(sigma->0) =      -52.74240294


--------------------------------------------------------------------------------------------------------




--------------------------------------- Iteration      1(   4)  ---------------------------------------


     EDDAV:  cpu time    0.6406: real time    0.6409
       DOS:  cpu time    0.0007: real time    0.0007
    --------------------------------------------
      LOOP:  cpu time    0.6413: real time    0.6416

 eigenvalue-minimisations  :  1722
 total energy-change (2. order) :-0.8441364E-01  (-0.8406748E-01)
 number of electron      32.0000000 magnetization 
 augmentation part       32.0000000 magnetization 

 Free energy of the ion-electron system (eV)
  ---------------------------------------------------
  alpha Z        PSCENC =       149.53377724
  Ewald energy   TEWEN  =     -1508.91019654
  -Hartree energ DENC   =       -55.68242493
  -exchange      EXHF   =         0.00000000
  -V(xc)+E(xc)   XCENC  =       116.67036618
  PAW double counting   =       868.17637104     -872.73161751
  entropy T*S    EENTRO =        -0.00924529
  eigenvalues    EBANDS =        72.91948853
  atomic energy  EATOM  =      1177.20230207
  Solvation  Ediel_sol  =         0.00000000
  ---------------------------------------------------
  free energy    TOTEN  =       -52.83117921 eV

  energy without entropy =      -52.82193392  energy(sigma->0) =      -52.82655657


--------------------------------------------------------------------------------------------------------




--------------------------------------- Iteration      1(   5)  ---------------------------------------


     EDDAV:  cpu time    0.7021: real time    0.7026
       DOS:  cpu time    0.0007: real time    0.0007
    CHARGE:  cpu time    0.0529: real time    0.0529
    MIXING:  cpu time    0.0010: real time    0.0010
    --------------------------------------------
      LOOP:  cpu time    0.7567: real time    0.7572

 eigenvalue-minimisations  :  1876
 total energy-change (2. order) :-0.2042076E-02  (-0.2040925E-02)
 number of electron      32.0000003 magnetization 
 augmentation part        0.9509796 magnetization 

 Broyden mixing:
  rms(total) = 0.14410E+01    rms(broyden)= 0.14409E+01
  rms(prec ) = 0.26741E+01
  weight for this iteration     100.00

 Free energy of the ion-electron system (eV)
  ---------------------------------------------------
  alpha Z        PSCENC =       149.53377724
  Ewald energy   TEWEN  =     -1508.91019654
  -Hartree energ DENC   =       -55.68242493
  -exchange      EXHF   =         0.00000000
  -V(xc)+E(xc)   XCENC  =       116.67036618
  PAW double counting   =       868.17637104     -872.73161751
  entropy T*S    EENTRO =        -0.00927622
  eigenvalues    EBANDS =        72.91747737
  atomic energy  EATOM  =      1177.20230207
  Solvation  Ediel_sol  =         0.00000000
  ---------------------------------------------------
  free energy    TOTEN  =       -52.83322129 eV

  energy without entropy =      -52.82394507  energy(sigma->0) =      -52.82858318


--------------------------------------------------------------------------------------------------------




--------------------------------------- Iteration      1(   6)  ---------------------------------------


    POTLOK:  cpu time    0.0286: real time    0.0286
    SETDIJ:  cpu time    0.0035: real time    0.0035
     EDDAV:  cpu time    0.6042: real time    0.6044
       DOS:  cpu time    0.0007: real time    0.0007
    CHARGE:  cpu time    0.0552: real time    0.0553
    MIXING:  cpu time    0.0009: real time    0.0009
    --------------------------------------------
      LOOP:  cpu time    0.6931: real time    0.6934

 eigenvalue-minimisations  :  1570
 total energy-change (2. order) : 0.3370772E+01  (-0.2840514E+00)
 number of electron      32.0000003 magnetization 
 augmentation part        0.9067267 magnetization 

 Broyden mixing:
  rms(total) = 0.83556E+00    rms(broyden)= 0.83556E+00
  rms(prec ) = 0.13763E+01
  weight for this iteration     100.00

 eigenvalues of (default mixing * dielectric matrix)
  average eigenvalue GAMMA=   2.1640
  2.1640

 Free energy of the ion-electron system (eV)
  ---------------------------------------------------
  alpha Z        PSCENC =       149.53377724
  Ewald energy   TEWEN  =     -1508.91019654
  -Hartree energ DENC   =       -72.63516233
  -exchange      EXHF   =         0.00000000
  -V(xc)+E(xc)   XCENC  =       118.05966812
  PAW double counting   =      1799.12383552    -1804.43492228
  entropy T*S    EENTRO =        -0.01112031
  eigenvalues    EBANDS =        92.60936874
  atomic energy  EATOM  =      1177.20230207
  Solvation  Ediel_sol  =         0.00000000
  ---------------------------------------------------
  free energy    TOTEN  =       -49.46244976 eV

  energy without entropy =      -49.45132945  energy(sigma->0) =      -49.45688961


--------------------------------------------------------------------------------------------------------




--------------------------------------- Iteration      1(   7)  ---------------------------------------


    POTLOK:  cpu time    0.0287: real time    0.0288
    SETDIJ:  cpu time    0.0035: real time    0.0035
     EDDAV:  cpu time    0.6250: real time    0.6250
       DOS:  cpu time    0.0007: real time    0.0007
    CHARGE:  cpu time    0.0557: real time    0.0558
    MIXING:  cpu time    0.0009: real time    0.0009
    --------------------------------------------
      LOOP:  cpu time    0.7145: real time    0.7146

 eigenvalue-minimisations  :  1660
 total energy-change (2. order) : 0.8951088E+00  (-0.2384901E+00)
 number of electron      32.0000003 magnetization 
 augmentation part        0.8690615 magnetization 

 Broyden mixing:
  rms(total) = 0.25385E+00    rms(broyden)= 0.25383E+00
  rms(prec ) = 0.28878E+00
  weight for this iteration     100.00

 eigenvalues of (default mixing * dielectric matrix)
  average eigenvalue GAMMA=   2.2907
  1.8539  2.7274

 Free energy of the ion-electron system (eV)
  ---------------------------------------------------
  alpha Z        PSCENC =       149.53377724
  Ewald energy   TEWEN  =     -1508.91019654
  -Hartree energ DENC   =       -91.07855608
  -exchange      EXHF   =         0.00000000
  -V(xc)+E(xc)   XCENC  =       119.62331366
  PAW double counting   =      3481.26308157    -3487.23027916
  entropy T*S    EENTRO =        -0.00968015
  eigenvalues    EBANDS =       111.03889644
  atomic energy  EATOM  =      1177.20230207
  Solvation  Ediel_sol  =         0.00000000
  ---------------------------------------------------
  free energy    TOTEN  =       -48.56734095 eV

  energy without entropy =      -48.55766080  energy(sigma->0) =      -48.56250087


--------------------------------------------------------------------------------------------------------




--------------------------------------- Iteration      1(   8)  ---------------------------------------


    POTLOK:  cpu time    0.0289: real time    0.0289
    SETDIJ:  cpu time    0.0036: real time    0.0036
     EDDAV:  cpu time    1.0272: real time    1.0279
       DOS:  cpu time    0.0007: real time    0.0006
    CHARGE:  cpu time    0.0528: real time    0.0529
    MIXING:  cpu time    0.0010: real time    0.0010
    --------------------------------------------
      LOOP:  cpu time    1.1141: real time    1.1149

 eigenvalue-minimisations  :  1684
 total energy-change (2. order) :-0.3853360E-02  (-0.1184653E-01)
 number of electron      32.0000003 magnetization 
 augmentation part        0.8681292 magnetization 

 Broyden mixing:
  rms(total) = 0.22357E-01    rms(broyden)= 0.22345E-01
  rms(prec ) = 0.34229E-01
  weight for this iteration     100.00

 eigenvalues of (default mixing * dielectric matrix)
  average eigenvalue GAMMA=   1.8032
  1.2500  2.3973  1.7622

 Free energy of the ion-electron system (eV)
  ---------------------------------------------------
  alpha Z        PSCENC =       149.53377724
  Ewald energy   TEWEN  =     -1508.91019654
  -Hartree energ DENC   =       -91.43729295
  -exchange      EXHF   =         0.00000000
  -V(xc)+E(xc)   XCENC  =       119.70599557
  PAW double counting   =      4268.39885554    -4274.29237894
  entropy T*S    EENTRO =        -0.01001367
  eigenvalues    EBANDS =       111.23775737
  atomic energy  EATOM  =      1177.20230207
  Solvation  Ediel_sol  =         0.00000000
  ---------------------------------------------------
  free energy    TOTEN  =       -48.57119431 eV

  energy without entropy =      -48.56118064  energy(sigma->0) =      -48.56618747


--------------------------------------------------------------------------------------------------------




--------------------------------------- Iteration      1(   9)  ---------------------------------------


    POTLOK:  cpu time    0.0329: real time    0.0333
    SETDIJ:  cpu time    0.0061: real time    0.0061
     EDDAV:  cpu time    1.2143: real time    1.2143
       DOS:  cpu time    0.0023: real time    0.0023
    CHARGE:  cpu time    0.0925: real time    0.0925
    MIXING:  cpu time    0.0010: real time    0.0010
    --------------------------------------------
      LOOP:  cpu time    1.3491: real time    1.3495

 eigenvalue-minimisations  :  1828
 total energy-change (2. order) : 0.3112659E-03  (-0.2621186E-03)
 number of electron      32.0000003 magnetization 
 augmentation part        0.8679355 magnetization 

 Broyden mixing:
  rms(total) = 0.10534E-01    rms(broyden)= 0.10533E-01
  rms(prec ) = 0.14327E-01
  weight for this iteration     100.00

 eigenvalues of (default mixing * dielectric matrix)
  average eigenvalue GAMMA=   1.9003
  1.0248  1.7840  2.3962  2.3962

 Free energy of the ion-electron system (eV)
  ---------------------------------------------------
  alpha Z        PSCENC =       149.53377724
  Ewald energy   TEWEN  =     -1508.91019654
  -Hartree energ DENC   =       -91.49189346
  -exchange      EXHF   =         0.00000000
  -V(xc)+E(xc)   XCENC  =       119.70522800
  PAW double counting   =      4208.97430337    -4214.86608164
  entropy T*S    EENTRO =        -0.00999099
  eigenvalues    EBANDS =       111.29166891
  atomic energy  EATOM  =      1177.20230207
  Solvation  Ediel_sol  =         0.00000000
  ---------------------------------------------------
  free energy    TOTEN  =       -48.57088304 eV

  energy without entropy =      -48.56089205  energy(sigma->0) =      -48.56588755


--------------------------------------------------------------------------------------------------------




--------------------------------------- Iteration      1(  10)  ---------------------------------------


    POTLOK:  cpu time    0.0460: real time    0.0460
    SETDIJ:  cpu time    0.0054: real time    0.0054
     EDDAV:  cpu time    1.1189: real time    1.1192
       DOS:  cpu time    0.0022: real time    0.0022
    CHARGE:  cpu time    0.0931: real time    0.0931
    MIXING:  cpu time    0.0010: real time    0.0010
    --------------------------------------------
      LOOP:  cpu time    1.2666: real time    1.2670

 eigenvalue-minimisations  :  1724
 total energy-change (2. order) :-0.5842497E-04  (-0.2345329E-04)
 number of electron      32.0000003 magnetization 
 augmentation part        0.8679519 magnetization 

 Broyden mixing:
  rms(total) = 0.17348E-02    rms(broyden)= 0.17346E-02
  rms(prec ) = 0.27235E-02
  weight for this iteration     100.00

 eigenvalues of (default mixing * dielectric matrix)
  average eigenvalue GAMMA=   1.7793
  2.4424  2.4424  1.7616  1.0185  1.2318

 Free energy of the ion-electron system (eV)
  ---------------------------------------------------
  alpha Z        PSCENC =       149.53377724
  Ewald energy   TEWEN  =     -1508.91019654
  -Hartree energ DENC   =       -91.49607109
  -exchange      EXHF   =         0.00000000
  -V(xc)+E(xc)   XCENC  =       119.70620016
  PAW double counting   =      4226.23689616    -4232.11526387
  entropy T*S    EENTRO =        -0.00998273
  eigenvalues    EBANDS =       111.28139712
  atomic energy  EATOM  =      1177.20230207
  Solvation  Ediel_sol  =         0.00000000
  ---------------------------------------------------
  free energy    TOTEN  =       -48.57094147 eV

  energy without entropy =      -48.56095874  energy(sigma->0) =      -48.56595010


--------------------------------------------------------------------------------------------------------




--------------------------------------- Iteration      1(  11)  ---------------------------------------


    POTLOK:  cpu time    0.0461: real time    0.0461
    SETDIJ:  cpu time    0.0054: real time    0.0054
     EDDAV:  cpu time    1.1165: real time    1.1167
       DOS:  cpu time    0.0023: real time    0.0023
    CHARGE:  cpu time    0.0923: real time    0.0923
    MIXING:  cpu time    0.0011: real time    0.0011
    --------------------------------------------
      LOOP:  cpu time    1.2637: real time    1.2639

 eigenvalue-minimisations  :  1720
 total energy-change (2. order) :-0.6938044E-06  (-0.1046625E-05)
 number of electron      32.0000003 magnetization 
 augmentation part        0.8679691 magnetization 

 Broyden mixing:
  rms(total) = 0.83166E-03    rms(broyden)= 0.83164E-03
  rms(prec ) = 0.12093E-02
  weight for this iteration     100.00

 eigenvalues of (default mixing * dielectric matrix)
  average eigenvalue GAMMA=   1.8283
  2.6842  2.4758  2.0370  1.7506  0.9997  1.0226

 Free energy of the ion-electron system (eV)
  ---------------------------------------------------
  alpha Z        PSCENC =       149.53377724
  Ewald energy   TEWEN  =     -1508.91019654
  -Hartree energ DENC   =       -91.48945376
  -exchange      EXHF   =         0.00000000
  -V(xc)+E(xc)   XCENC  =       119.70603576
  PAW double counting   =      4224.87534777    -4230.75329192
  entropy T*S    EENTRO =        -0.00998652
  eigenvalues    EBANDS =       111.27452374
  atomic energy  EATOM  =      1177.20230207
  Solvation  Ediel_sol  =         0.00000000
  ---------------------------------------------------
  free energy    TOTEN  =       -48.57094216 eV

  energy without entropy =      -48.56095564  energy(sigma->0) =      -48.56594890


--------------------------------------------------------------------------------------------------------




--------------------------------------- Iteration      1(  12)  ---------------------------------------


    POTLOK:  cpu time    0.0456: real time    0.0456
    SETDIJ:  cpu time    0.0054: real time    0.0054
     EDDAV:  cpu time    0.8577: real time    0.8581
       DOS:  cpu time    0.0023: real time    0.0023
    CHARGE:  cpu time    0.0922: real time    0.0922
    MIXING:  cpu time    0.0011: real time    0.0011
    --------------------------------------------
      LOOP:  cpu time    1.0042: real time    1.0047

 eigenvalue-minimisations  :  1162
 total energy-change (2. order) :-0.1274618E-05  (-0.1113074E-06)
 number of electron      32.0000003 magnetization 
 augmentation part        0.8679665 magnetization 

 Broyden mixing:
  rms(total) = 0.93692E-04    rms(broyden)= 0.93684E-04
  rms(prec ) = 0.13402E-03
  weight for this iteration     100.00

 eigenvalues of (default mixing * dielectric matrix)
  average eigenvalue GAMMA=   1.7425
  2.6258  2.3110  2.2264  1.7479  1.0109  1.1378  1.1378

 Free energy of the ion-electron system (eV)
  ---------------------------------------------------
  alpha Z        PSCENC =       149.53377724
  Ewald energy   TEWEN  =     -1508.91019654
  -Hartree energ DENC   =       -91.50196928
  -exchange      EXHF   =         0.00000000
  -V(xc)+E(xc)   XCENC  =       119.70722514
  PAW double counting   =      4224.16115113    -4230.03885918
  entropy T*S    EENTRO =        -0.00998860
  eigenvalues    EBANDS =       111.28561457
  atomic energy  EATOM  =      1177.20230207
  Solvation  Ediel_sol  =         0.00000000
  ---------------------------------------------------
  free energy    TOTEN  =       -48.57094343 eV

  energy without entropy =      -48.56095484  energy(sigma->0) =      -48.56594914


--------------------------------------------------------------------------------------------------------




--------------------------------------- Iteration      1(  13)  ---------------------------------------


    POTLOK:  cpu time    0.0454: real time    0.0454
    SETDIJ:  cpu time    0.0053: real time    0.0053
     EDDAV:  cpu time    0.8003: real time    0.8003
       DOS:  cpu time    0.0023: real time    0.0023
    --------------------------------------------
      LOOP:  cpu time    0.8533: real time    0.8533

 eigenvalue-minimisations  :  1070
 total energy-change (2. order) : 0.7186850E-07  (-0.6625138E-08)
 number of electron      32.0000003 magnetization 
 augmentation part        0.8679665 magnetization 

 Free energy of the ion-electron system (eV)
  ---------------------------------------------------
  alpha Z        PSCENC =       149.53377724
  Ewald energy   TEWEN  =     -1508.91019654
  -Hartree energ DENC   =       -91.50318358
  -exchange      EXHF   =         0.00000000
  -V(xc)+E(xc)   XCENC  =       119.70732254
  PAW double counting   =      4224.27866155    -4230.15646413
  entropy T*S    EENTRO =        -0.00998867
  eigenvalues    EBANDS =       111.28682616
  atomic energy  EATOM  =      1177.20230207
  Solvation  Ediel_sol  =         0.00000000
  ---------------------------------------------------
  free energy    TOTEN  =       -48.57094336 eV

  energy without entropy =      -48.56095469  energy(sigma->0) =      -48.56594903


--------------------------------------------------------------------------------------------------------




 average (electrostatic) potential at core
  the test charge radii are     0.6991
  (the norm of the test charge is              1.0000)
       1 -42.0893       2 -42.0893       3 -42.0893       4 -42.0893       5 -42.0893
       6 -42.0893       7 -42.0893       8 -42.0893
 
 
 
 E-fermi :  16.3478     XC(G=0): -14.6979     alpha+bet :-22.8049

 Fermi energy:        16.3478417944

 k-point     1 :       0.1250    0.1250    0.1250
  band No.  band energies     occupation 
      1     -11.4376      2.00000
      2      -6.6617      2.00000
      3      -2.5368      2.00000
      4      -1.9439      2.00000
      5      -0.0294      2.00000
      6       0.1491      2.00000
      7       1.2312      2.00000
      8       3.7831      2.00000
      9       5.0169      2.00000
     10       6.7539      2.00000
     11       7.2439      2.00000
     12       8.1881      2.00000
     13       9.0346      2.00000
     14      10.9811      2.00000
     15      14.1593      2.00000
     16      14.6008      2.00000
     17      16.7031      0.00000
     18      17.8491      0.00000
     19      18.8250      0.00000
     20      19.4471      0.00000
     21      21.3955      0.00000
     22      21.5288      0.00000

 k-point     2 :       0.3750    0.1250    0.1250
  band No.  band energies     occupation 
      1      -9.6526      2.00000
      2      -5.7816      2.00000
      3      -4.8586      2.00000
      4      -1.6787      2.00000
      5      -0.5254      2.00000
      6       1.0858      2.00000
      7       1.6045      2.00000
      8       3.1667      2.00000
      9       4.1975      2.00000
     10       4.3203      2.00000
     11       5.7160      2.00000
     12       6.6243      2.00000
     13       7.1650      2.00000
     14      10.7344      2.00000
     15      13.0052      2.00000
     16      15.6258      2.00000
     17      15.7080      2.00000
     18      16.6787      0.00000
     19      22.5848      0.00000
     20      23.9277      0.00000
     21      24.0467      0.00000
     22      24.4698      0.00000

 k-point     3 :      -0.3750    0.1250    0.1250
  band No.  band energies     occupation 
      1      -8.9272      2.00000
      2      -6.0954      2.00000
      3      -5.1413      2.00000
      4      -4.1262      2.00000
      5      -0.3491      2.00000
      6       1.2915      2.00000
      7       2.7027      2.00000
      8       4.2674      2.00000
      9       4.6500      2.00000
     10       5.2766      2.00000
     11       6.5533      2.00000
     12       7.3085      2.00000
     13       7.5787      2.00000
     14       8.7799      2.00000
     15      11.8244      2.00000
     16      13.0194      2.00000
     17      17.3158      0.00000
     18      17.5156      0.00000
     19      21.9270      0.00000
     20      22.3487      0.00000
     21      23.6649      0.00000
     22      23.9104      0.00000

 k-point     4 :      -0.1250    0.1250    0.1250
  band No.  band energies     occupation 
      1     -11.1965      2.00000
      2      -6.1778      2.00000
      3      -4.5838      2.00000
      4      -1.9584      2.00000
      5      -1.8903      2.00000
      6       2.2958      2.00000
      7       2.7588      2.00000
      8       4.4636      2.00000
      9       5.9154      2.00000
     10       6.1108      2.00000
     11       7.9290      2.00000
     12       8.1097      2.00000
     13       8.1895      2.00000
     14      11.3007      2.00000
     15      13.5415      2.00000
     16      15.3405      2.00000
     17      15.3493      2.00000
     18      16.3600      0.86386
     19      17.8430      0.00000
     20      19.9707      0.00000
     21      21.6237      0.00000
     22      23.0542      0.00000

 k-point     5 :       0.1250    0.3750    0.1250
  band No.  band energies     occupation 
      1     -10.3153      2.00000
      2      -6.6947      2.00000
      3      -6.0390      2.00000
      4      -1.8616      2.00000
      5      -0.8350      2.00000
      6       1.0988      2.00000
      7       2.6061      2.00000
      8       4.6958      2.00000
      9       4.9667      2.00000
     10       5.6115      2.00000
     11       8.4014      2.00000
     12       8.5323      2.00000
     13       9.1348      2.00000
     14      10.9775      2.00000
     15      14.1708      2.00000
     16      15.0810      2.00000
     17      16.2167      1.93639
     18      17.3190      0.00000
     19      20.0569      0.00000
     20      21.8516      0.00000
     21      22.3776      0.00000
     22      22.7102      0.00000

 k-point     6 :       0.3750    0.3750    0.1250
  band No.  band energies     occupation 
      1      -9.1102      2.00000
      2      -6.4353      2.00000
      3      -3.3469      2.00000
      4      -2.2288      2.00000
      5      -1.2332      2.00000
      6       1.2189      2.00000
      7       1.4561      2.00000
      8       1.5620      2.00000
      9       2.0585      2.00000
     10       4.7364      2.00000
     11       4.8779      2.00000
     12       5.5151      2.00000
     13      10.6895      2.00000
     14      11.5694      2.00000
     15      16.7947      0.00000
     16      17.0820      0.00000
     17      17.3023      0.00000
     18      17.9268      0.00000
     19      21.1337      0.00000
     20      22.7095      0.00000
     21      23.2280      0.00000
     22      23.7759      0.00000

 k-point     7 :      -0.3750    0.3750    0.1250
  band No.  band energies     occupation 
      1      -7.6701      2.00000
      2      -6.7461      2.00000
      3      -6.3308      2.00000
      4      -2.2081      2.00000
      5      -0.1372      2.00000
      6       0.5239      2.00000
      7       1.0479      2.00000
      8       2.4415      2.00000
      9       3.0907      2.00000
     10       4.4755      2.00000
     11       5.2361      2.00000
     12       7.8764      2.00000
     13       9.5004      2.00000
     14      13.0399      2.00000
     15      13.6432      2.00000
     16      15.7521      2.00000
     17      17.4043      0.00000
     18      19.5754      0.00000
     19      20.5751      0.00000
     20      21.3235      0.00000
     21      21.8836      0.00000
     22      23.1863      0.00000

 k-point     8 :      -0.1250    0.3750    0.1250
  band No.  band energies     occupation 
      1      -9.5359      2.00000
      2      -8.0988      2.00000
      3      -4.8913      2.00000
      4      -3.7249      2.00000
      5      -0.2779      2.00000
      6      -0.0962      2.00000
      7       3.4127      2.00000
      8       4.7963      2.00000
      9       7.2042      2.00000
     10       8.5357      2.00000
     11       8.6048      2.00000
     12       8.8522      2.00000
     13       9.1769      2.00000
     14       9.7385      2.00000
     15      10.6873      2.00000
     16      12.9089      2.00000
     17      16.7802      0.00000
     18      19.6039      0.00000
     19      19.7133      0.00000
     20      19.8790      0.00000
     21      22.4489      0.00000
     22      24.6296      0.00000

 k-point     9 :       0.1250   -0.3750    0.1250
  band No.  band energies     occupation 
      1      -9.6150      2.00000
      2      -7.8915      2.00000
      3      -4.5128      2.00000
      4      -4.4909      2.00000
      5      -0.7723      2.00000
      6       0.8429      2.00000
      7       3.2543      2.00000
      8       5.2114      2.00000
      9       7.1984      2.00000
     10       7.7325      2.00000
     11       8.5016      2.00000
     12       8.8243      2.00000
     13       9.0904      2.00000
     14      10.3363      2.00000
     15      11.0981      2.00000
     16      12.5849      2.00000
     17      17.1346      0.00000
     18      18.4086      0.00000
     19      19.3666      0.00000
     20      20.8142      0.00000
     21      23.0035      0.00000
     22      23.3222      0.00000

 k-point    10 :       0.3750   -0.3750    0.1250
  band No.  band energies     occupation 
      1      -7.3605      2.00000
      2      -6.7656      2.00000
      3      -6.7287      2.00000
      4      -2.2074      2.00000
      5      -0.4833      2.00000
      6       0.8909      2.00000
      7       1.1817      2.00000
      8       3.0979      2.00000
      9       3.2611      2.00000
     10       3.7653      2.00000
     11       5.2852      2.00000
     12       7.7265      2.00000
     13       9.0112      2.00000
     14      13.3791      2.00000
     15      13.9691      2.00000
     16      16.3366      1.12585
     17      16.8979      0.00000
     18      18.8304      0.00000
     19      20.8241      0.00000
     20      21.5264      0.00000
     21      22.0982      0.00000
     22      22.3851      0.00000

 k-point    11 :      -0.3750   -0.3750    0.1250
  band No.  band energies     occupation 
      1      -9.3151      2.00000
      2      -5.8119      2.00000
      3      -3.2850      2.00000
      4      -2.1694      2.00000
      5      -1.6885      2.00000
      6       0.9077      2.00000
      7       1.3192      2.00000
      8       1.3302      2.00000
      9       1.3806      2.00000
     10       4.9257      2.00000
     11       5.8621      2.00000
     12       6.0688      2.00000
     13      10.0167      2.00000
     14      12.3189      2.00000
     15      17.0402      0.00000
     16      17.1817      0.00000
     17      17.7866      0.00000
     18      18.5348      0.00000
     19      20.5101      0.00000
     20      20.7076      0.00000
     21      22.1656      0.00000
     22      22.9823      0.00000

 k-point    12 :      -0.1250   -0.3750    0.1250
  band No.  band energies     occupation 
      1     -10.4485      2.00000
      2      -6.5507      2.00000
      3      -5.3394      2.00000
      4      -2.5362      2.00000
      5      -1.8861      2.00000
      6       1.8093      2.00000
      7       3.0580      2.00000
      8       4.7288      2.00000
      9       5.0124      2.00000
     10       5.2814      2.00000
     11       8.2409      2.00000
     12       8.3679      2.00000
     13       9.4223      2.00000
     14      11.2100      2.00000
     15      14.7032      2.00000
     16      14.7764      2.00000
     17      17.1627      0.00000
     18      19.3006      0.00000
     19      19.5832      0.00000
     20      19.7767      0.00000
     21      21.2732      0.00000
     22      22.0576      0.00000

 k-point    13 :       0.1250   -0.1250    0.1250
  band No.  band energies     occupation 
      1     -11.2063      2.00000
      2      -6.1523      2.00000
      3      -4.3036      2.00000
      4      -2.4553      2.00000
      5      -1.9478      2.00000
      6       2.5188      2.00000
      7       2.6430      2.00000
      8       4.9671      2.00000
      9       5.7221      2.00000
     10       5.8173      2.00000
     11       8.0630      2.00000
     12       8.1085      2.00000
     13       8.2158      2.00000
     14      12.2949      2.00000
     15      13.5262      2.00000
     16      14.1100      2.00000
     17      15.9534      2.00000
     18      16.4254      0.27284
     19      17.9486      0.00000
     20      19.0091      0.00000
     21      21.4947      0.00000
     22      21.6422      0.00000

 k-point    14 :       0.3750   -0.1250    0.1250
  band No.  band energies     occupation 
      1      -8.8797      2.00000
      2      -6.3337      2.00000
      3      -4.7017      2.00000
      4      -4.4614      2.00000
      5       0.2972      2.00000
      6       1.0786      2.00000
      7       1.9610      2.00000
      8       4.1344      2.00000
      9       4.6379      2.00000
     10       5.6354      2.00000
     11       6.9867      2.00000
     12       7.3702      2.00000
     13       7.4164      2.00000
     14       8.6132      2.00000
     15      12.4850      2.00000
     16      13.3215      2.00000
     17      15.7722      2.00000
     18      17.8571      0.00000
     19      21.6376      0.00000
     20      22.4181      0.00000
     21      22.8751      0.00000
     22      23.7098      0.00000

 k-point    15 :      -0.3750   -0.1250    0.1250
  band No.  band energies     occupation 
      1      -9.7740      2.00000
      2      -5.1520      2.00000
      3      -4.7235      2.00000
      4      -2.1872      2.00000
      5      -1.6048      2.00000
      6       1.3207      2.00000
      7       2.2374      2.00000
      8       3.6065      2.00000
      9       4.0790      2.00000
     10       4.2186      2.00000
     11       5.5784      2.00000
     12       5.8753      2.00000
     13       7.9481      2.00000
     14      11.0950      2.00000
     15      12.8484      2.00000
     16      15.0596      2.00000
     17      16.2051      1.95650
     18      17.5576      0.00000
     19      22.2749      0.00000
     20      22.2913      0.00000
     21      24.4860      0.00000
     22      25.0419      0.00000

 k-point    16 :      -0.1250   -0.1250    0.1250
  band No.  band energies     occupation 
      1     -11.4984      2.00000
      2      -6.2920      2.00000
      3      -2.5193      2.00000
      4      -2.3525      2.00000
      5      -0.1576      2.00000
      6      -0.0293      2.00000
      7       1.0623      2.00000
      8       4.1736      2.00000
      9       5.1506      2.00000
     10       6.6336      2.00000
     11       7.6036      2.00000
     12       8.5931      2.00000
     13       8.7569      2.00000
     14      10.3495      2.00000
     15      14.8388      2.00000
     16      15.9471      2.00000
     17      16.6025      0.00032
     18      16.9494      0.00000
     19      19.0193      0.00000
     20      19.0409      0.00000
     21      20.7780      0.00000
     22      21.8138      0.00000

 k-point    17 :       0.1250    0.1250    0.3750
  band No.  band energies     occupation 
      1     -10.4798      2.00000
      2      -8.9822      2.00000
      3      -2.0365      2.00000
      4      -0.4635      2.00000
      5       0.3880      2.00000
      6       0.7004      2.00000
      7       1.4794      2.00000
      8       4.0170      2.00000
      9       4.8303      2.00000
     10       5.5129      2.00000
     11       5.8435      2.00000
     12       8.1679      2.00000
     13       8.6886      2.00000
     14       9.2694      2.00000
     15      16.4388      0.19852
     16      16.6449      0.00003
     17      17.3558      0.00000
     18      17.9825      0.00000
     19      20.4094      0.00000
     20      21.1791      0.00000
     21      21.2509      0.00000
     22      22.2608      0.00000

 k-point    18 :       0.3750    0.1250    0.3750
  band No.  band energies     occupation 
      1      -8.6757      2.00000
      2      -7.5924      2.00000
      3      -4.3078      2.00000
      4      -2.5418      2.00000
      5       0.0832      2.00000
      6       1.6910      2.00000
      7       1.7296      2.00000
      8       3.0104      2.00000
      9       3.0665      2.00000
     10       4.6232      2.00000
     11       4.8696      2.00000
     12       8.2717      2.00000
     13       9.4133      2.00000
     14      10.6863      2.00000
     15      13.3498      2.00000
     16      13.6474      2.00000
     17      16.2861      1.61742
     18      18.3954      0.00000
     19      20.5224      0.00000
     20      22.0585      0.00000
     21      22.9584      0.00000
     22      23.7583      0.00000

 k-point    19 :      -0.3750    0.1250    0.3750
  band No.  band energies     occupation 
      1      -8.1210      2.00000
      2      -6.2556      2.00000
      3      -5.4935      2.00000
      4      -5.2525      2.00000
      5      -0.1906      2.00000
      6       0.2899      2.00000
      7       1.9991      2.00000
      8       4.5512      2.00000
      9       6.9096      2.00000
     10       7.3482      2.00000
     11       7.6068      2.00000
     12       7.7942      2.00000
     13       8.2894      2.00000
     14       8.6834      2.00000
     15      10.3661      2.00000
     16      10.4583      2.00000
     17      16.2873      1.60786
     18      20.2599      0.00000
     19      20.6564      0.00000
     20      21.1449      0.00000
     21      23.3006      0.00000
     22      24.4720      0.00000

 k-point    20 :      -0.1250    0.1250    0.3750
  band No.  band energies     occupation 
      1     -10.2921      2.00000
      2      -8.5714      2.00000
      3      -4.2023      2.00000
      4      -2.2116      2.00000
      5       1.5934      2.00000
      6       1.8263      2.00000
      7       2.7339      2.00000
      8       4.2035      2.00000
      9       5.0466      2.00000
     10       5.4154      2.00000
     11       7.1492      2.00000
     12       8.5421      2.00000
     13       9.0669      2.00000
     14       9.4245      2.00000
     15      14.0450      2.00000
     16      14.7313      2.00000
     17      15.9750      2.00000
     18      18.6706      0.00000
     19      20.3160      0.00000
     20      20.8206      0.00000
     21      21.1656      0.00000
     22      23.3221      0.00000

 k-point    21 :       0.1250    0.3750    0.3750
  band No.  band energies     occupation 
      1      -9.3066      2.00000
      2      -8.1551      2.00000
      3      -6.0119      2.00000
      4      -3.8819      2.00000
      5       1.3562      2.00000
      6       3.0325      2.00000
      7       3.1651      2.00000
      8       4.6955      2.00000
      9       4.7654      2.00000
     10       5.2299      2.00000
     11       7.5711      2.00000
     12       8.5157      2.00000
     13       9.2335      2.00000
     14       9.9273      2.00000
     15      13.6718      2.00000
     16      15.3402      2.00000
     17      16.5633      0.00231
     18      17.0616      0.00000
     19      18.6500      0.00000
     20      22.3841      0.00000
     21      23.7950      0.00000
     22      23.9862      0.00000

 k-point    22 :       0.3750    0.3750    0.3750
  band No.  band energies     occupation 
      1      -8.1033      2.00000
      2      -7.5870      2.00000
      3      -2.7301      2.00000
      4      -2.0021      2.00000
      5      -1.8690      2.00000
      6      -0.5763      2.00000
      7      -0.0370      2.00000
      8       0.4083      2.00000
      9       5.3051      2.00000
     10       5.9199      2.00000
     11       6.0559      2.00000
     12       7.0050      2.00000
     13      11.1937      2.00000
     14      12.1890      2.00000
     15      13.9710      2.00000
     16      17.4759      0.00000
     17      17.4766      0.00000
     18      17.7617      0.00000
     19      19.1255      0.00000
     20      19.4564      0.00000
     21      21.7064      0.00000
     22      22.2544      0.00000

 k-point    23 :      -0.3750    0.3750    0.3750
  band No.  band energies     occupation 
      1      -7.3924      2.00000
      2      -5.9006      2.00000
      3      -5.8381      2.00000
      4      -4.3462      2.00000
      5      -2.2385      2.00000
      6      -1.5026      2.00000
      7       2.6205      2.00000
      8       4.0230      2.00000
      9       4.7871      2.00000
     10       5.8165      2.00000
     11       7.0005      2.00000
     12       7.4789      2.00000
     13      11.0372      2.00000
     14      11.5597      2.00000
     15      13.8949      2.00000
     16      13.9301      2.00000
     17      16.6132      0.00017
     18      18.3020      0.00000
     19      18.6115      0.00000
     20      20.3124      0.00000
     21      20.8207      0.00000
     22      22.7543      0.00000

 k-point    24 :      -0.1250    0.3750    0.3750
  band No.  band energies     occupation 
      1      -8.5822      2.00000
      2      -7.4926      2.00000
      3      -7.1763      2.00000
      4      -5.1830      2.00000
      5       0.6978      2.00000
      6       2.7603      2.00000
      7       3.1302      2.00000
      8       5.9601      2.00000
      9       6.0628      2.00000
     10       8.1583      2.00000
     11       8.4876      2.00000
     12       9.0436      2.00000
     13       9.3684      2.00000
     14      10.1288      2.00000
     15      10.5477      2.00000
     16      10.8082      2.00000
     17      18.1075      0.00000
     18      19.0397      0.00000
     19      19.0914      0.00000
     20      20.4977      0.00000
     21      21.4137      0.00000
     22      22.9442      0.00000

 k-point    25 :       0.1250   -0.3750    0.3750
  band No.  band energies     occupation 
      1      -8.8156      2.00000
      2      -6.8713      2.00000
      3      -6.8038      2.00000
      4      -6.1776      2.00000
      5       1.4204      2.00000
      6       2.5418      2.00000
      7       2.7163      2.00000
      8       6.1108      2.00000
      9       6.3855      2.00000
     10       7.9956      2.00000
     11       8.2895      2.00000
     12       9.3972      2.00000
     13       9.4407      2.00000
     14       9.9611      2.00000
     15      10.2051      2.00000
     16      11.1728      2.00000
     17      16.9762      0.00000
     18      19.5627      0.00000
     19      19.5812      0.00000
     20      20.0303      0.00000
     21      21.1484      0.00000
     22      22.7590      0.00000

 k-point    26 :       0.3750   -0.3750    0.3750
  band No.  band energies     occupation 
      1      -6.9590      2.00000
      2      -6.4581      2.00000
      3      -5.9500      2.00000
      4      -4.2961      2.00000
      5      -1.9656      2.00000
      6      -1.6125      2.00000
      7       2.7257      2.00000
      8       4.0166      2.00000
      9       4.9753      2.00000
     10       6.7141      2.00000
     11       6.7201      2.00000
     12       6.7879      2.00000
     13       9.7577      2.00000
     14      12.7442      2.00000
     15      13.0381      2.00000
     16      15.3924      2.00000
     17      16.1714      1.98743
     18      18.1533      0.00000
     19      18.6062      0.00000
     20      19.7197      0.00000
     21      21.8087      0.00000
     22      22.2282      0.00000

 k-point    27 :      -0.3750   -0.3750    0.3750
  band No.  band energies     occupation 
      1      -8.7362      2.00000
      2      -6.5461      2.00000
      3      -2.5941      2.00000
      4      -2.3127      2.00000
      5      -1.9355      2.00000
      6      -0.7986      2.00000
      7      -0.3167      2.00000
      8       0.2266      2.00000
      9       4.8477      2.00000
     10       6.0143      2.00000
     11       6.4596      2.00000
     12       7.7535      2.00000
     13      10.8336      2.00000
     14      12.7338      2.00000
     15      16.2157      1.93830
     16      16.3964      0.49220
     17      17.1204      0.00000
     18      17.7317      0.00000
     19      18.3376      0.00000
     20      18.7256      0.00000
     21      21.0447      0.00000
     22      22.9071      0.00000

 k-point    28 :      -0.1250   -0.3750    0.3750
  band No.  band energies     occupation 
      1      -9.7080      2.00000
      2      -7.4893      2.00000
      3      -5.5866      2.00000
      4      -4.5551      2.00000
      5       0.3835      2.00000
      6       3.1522      2.00000
      7       3.7593      2.00000
      8       4.2735      2.00000
      9       5.3340      2.00000
     10       6.1293      2.00000
     11       6.9135      2.00000
     12       8.1876      2.00000
     13       8.8779      2.00000
     14      10.3233      2.00000
     15      14.4571      2.00000
     16      15.0613      2.00000
     17      17.7836      0.00000
     18      17.8370      0.00000
     19      19.1107      0.00000
     20      19.8425      0.00000
     21      22.4927      0.00000
     22      23.1921      0.00000

 k-point    29 :       0.1250   -0.1250    0.3750
  band No.  band energies     occupation 
      1     -10.3191      2.00000
      2      -8.5359      2.00000
      3      -3.3823      2.00000
      4      -3.3532      2.00000
      5       1.6689      2.00000
      6       2.3331      2.00000
      7       2.5070      2.00000
      8       4.1653      2.00000
      9       5.2118      2.00000
     10       5.3220      2.00000
     11       6.5898      2.00000
     12       9.0930      2.00000
     13       9.3480      2.00000
     14       9.4901      2.00000
     15      14.0067      2.00000
     16      14.6674      2.00000
     17      17.4774      0.00000
     18      18.6533      0.00000
     19      18.9384      0.00000
     20      19.0043      0.00000
     21      21.3462      0.00000
     22      21.4877      0.00000

 k-point    30 :       0.3750   -0.1250    0.3750
  band No.  band energies     occupation 
      1      -7.9699      2.00000
      2      -6.5336      2.00000
      3      -6.0027      2.00000
      4      -4.4398      2.00000
      5      -0.6291      2.00000
      6       0.1531      2.00000
      7       2.6830      2.00000
      8       4.6017      2.00000
      9       6.1336      2.00000
     10       7.4116      2.00000
     11       7.5501      2.00000
     12       7.6584      2.00000
     13       8.2256      2.00000
     14       8.5600      2.00000
     15      10.9245      2.00000
     16      11.4293      2.00000
     17      17.3328      0.00000
     18      17.8361      0.00000
     19      18.4758      0.00000
     20      22.9572      0.00000
     21      23.3797      0.00000
     22      23.8248      0.00000

 k-point    31 :      -0.3750   -0.1250    0.3750
  band No.  band energies     occupation 
      1      -9.0513      2.00000
      2      -6.9399      2.00000
      3      -3.8803      2.00000
      4      -3.2704      2.00000
      5      -0.4769      2.00000
      6       1.4441      2.00000
      7       1.9923      2.00000
[...]
      5      -1.6360      2.00000
      6       0.1866      2.00000
      7       3.1469      2.00000
      8       4.1062      2.00000
      9       5.6741      2.00000
     10       6.4413      2.00000
     11       6.9979      2.00000
     12       8.3669      2.00000
     13       9.3900      2.00000
     14      11.0807      2.00000
     15      11.1971      2.00000
     16      12.7127      2.00000
     17      18.0987      0.00000
     18      19.0482      0.00000
     19      20.7827      0.00000
     20      21.5747      0.00000
     21      22.7448      0.00000
     22      22.9938      0.00000

 k-point    20 :      -0.1250    0.1250    0.3750
  band No.  band energies     occupation 
      1      -9.8179      2.00000
      2      -7.9505      2.00000
      3      -3.0608      2.00000
      4      -0.6714      2.00000
      5       2.2256      2.00000
      6       2.5314      2.00000
      7       2.8381      2.00000
      8       4.7523      2.00000
      9       5.3977      2.00000
     10       5.7793      2.00000
     11       5.8871      2.00000
     12       7.6349      2.00000
     13       7.6486      2.00000
     14      11.6491      2.00000
     15      14.5241      2.00000
     16      16.3426      2.00000
     17      16.4586      2.00000
     18      17.1599      0.29692
     19      17.5522      0.00000
     20      18.5449      0.00000
     21      22.6016      0.00000
     22      23.4372      0.00000

 k-point    21 :       0.1250    0.3750    0.3750
  band No.  band energies     occupation 
      1      -8.7962      2.00000
      2      -7.4399      2.00000
      3      -5.2213      2.00000
      4      -3.0097      2.00000
      5       1.0695      2.00000
      6       3.9692      2.00000
      7       4.4936      2.00000
      8       5.4248      2.00000
      9       6.3136      2.00000
     10       6.5370      2.00000
     11       6.9564      2.00000
     12       7.0096      2.00000
     13       7.4043      2.00000
     14       9.3682      2.00000
     15      13.8815      2.00000
     16      17.4378      0.00000
     17      17.4443      0.00000
     18      18.4641      0.00000
     19      18.5837      0.00000
     20      21.9166      0.00000
     21      22.4748      0.00000
     22      23.2540      0.00000

 k-point    22 :       0.3750    0.3750    0.3750
  band No.  band energies     occupation 
      1      -7.4538      2.00000
      2      -6.5167      2.00000
      3      -2.9315      2.00000
      4      -1.6327      2.00000
      5      -0.5401      2.00000
      6      -0.3799      2.00000
      7       0.5487      2.00000
      8       1.7574      2.00000
      9       5.2088      2.00000
     10       5.2366      2.00000
     11       6.4747      2.00000
     12       6.8921      2.00000
     13      10.0903      2.00000
     14      10.8000      2.00000
     15      15.0502      2.00000
     16      17.1754      0.20717
     17      19.4310      0.00000
     18      20.4086      0.00000
     19      20.5289      0.00000
     20      22.1177      0.00000
     21      22.3937      0.00000
     22      22.8074      0.00000

 k-point    23 :      -0.3750    0.3750    0.3750
  band No.  band energies     occupation 
      1      -6.3327      2.00000
      2      -5.1641      2.00000
      3      -4.4668      2.00000
      4      -3.3405      2.00000
      5      -2.7570      2.00000
      6      -2.5761      2.00000
      7       4.0223      2.00000
      8       4.5432      2.00000
      9       5.2665      2.00000
     10       5.9603      2.00000
     11       7.0745      2.00000
     12       7.0776      2.00000
     13       8.9372      2.00000
     14      12.2989      2.00000
     15      15.1833      2.00000
     16      16.8377      1.99956
     17      17.4433      0.00000
     18      18.2029      0.00000
     19      19.4884      0.00000
     20      21.1853      0.00000
     21      21.8320      0.00000
     22      21.9448      0.00000

 k-point    24 :      -0.1250    0.3750    0.3750
  band No.  band energies     occupation 
      1      -8.0335      2.00000
      2      -6.7550      2.00000
      3      -6.4224      2.00000
      4      -4.2744      2.00000
      5       1.3584      2.00000
      6       2.1661      2.00000
      7       4.0999      2.00000
      8       4.7901      2.00000
      9       6.8210      2.00000
     10       7.2498      2.00000
     11       8.2233      2.00000
     12       8.2320      2.00000
     13      11.4243      2.00000
     14      12.2399      2.00000
     15      12.4774      2.00000
     16      13.7542      2.00000
     17      16.5909      2.00000
     18      16.8553      1.99890
     19      18.2129      0.00000
     20      18.9863      0.00000
     21      22.3999      0.00000
     22      22.6490      0.00000

 k-point    25 :       0.1250   -0.3750    0.3750
  band No.  band energies     occupation 
      1      -8.2192      2.00000
      2      -6.2089      2.00000
      3      -6.1322      2.00000
      4      -5.1516      2.00000
      5       0.7329      2.00000
      6       3.3637      2.00000
      7       3.7953      2.00000
      8       6.0970      2.00000
      9       6.6297      2.00000
     10       7.0331      2.00000
     11       7.2380      2.00000
     12       8.7423      2.00000
     13      10.9967      2.00000
     14      11.2555      2.00000
     15      12.8305      2.00000
     16      14.2468      2.00000
     17      16.8251      1.99978
     18      17.4723      0.00000
     19      17.9533      0.00000
     20      18.6135      0.00000
     21      21.4349      0.00000
     22      22.6389      0.00000

 k-point    26 :       0.3750   -0.3750    0.3750
  band No.  band energies     occupation 
      1      -5.5518      2.00000
      2      -5.5128      2.00000
      3      -5.1593      2.00000
      4      -3.3807      2.00000
      5      -3.3473      2.00000
      6      -1.7118      2.00000
      7       3.8161      2.00000
      8       5.1404      2.00000
      9       5.6232      2.00000
     10       5.8445      2.00000
     11       6.4557      2.00000
     12       8.3614      2.00000
     13       8.4487      2.00000
     14      10.5090      2.00000
     15      16.0964      2.00000
     16      17.7856      0.00000
     17      17.8311      0.00000
     18      18.6376      0.00000
     19      18.8321      0.00000
     20      19.3485      0.00000
     21      21.4404      0.00000
     22      22.0773      0.00000

 k-point    27 :      -0.3750   -0.3750    0.3750
  band No.  band energies     occupation 
      1      -8.0287      2.00000
      2      -5.5358      2.00000
      3      -2.3798      2.00000
      4      -1.5593      2.00000
      5      -1.5233      2.00000
      6      -0.3747      2.00000
      7       0.4509      2.00000
      8       1.3395      2.00000
      9       3.5387      2.00000
     10       6.0389      2.00000
     11       7.2689      2.00000
     12       7.2706      2.00000
     13      10.3070      2.00000
     14      11.8801      2.00000
     15      15.0107      2.00000
     16      18.4449      0.00000
     17      18.7909      0.00000
     18      20.2329      0.00000
     19      20.3534      0.00000
     20      21.1458      0.00000
     21      21.4786      0.00000
     22      21.7522      0.00000

 k-point    28 :      -0.1250   -0.3750    0.3750
  band No.  band energies     occupation 
      1      -9.1654      2.00000
      2      -6.8343      2.00000
      3      -4.8816      2.00000
      4      -3.5276      2.00000
      5       1.5080      2.00000
      6       2.6558      2.00000
      7       3.5429      2.00000
      8       5.6225      2.00000
      9       6.2145      2.00000
     10       6.5697      2.00000
     11       6.9242      2.00000
     12       7.9867      2.00000
     13       8.1501      2.00000
     14      10.0752      2.00000
     15      14.2942      2.00000
     16      16.4672      2.00000
     17      17.8793      0.00000
     18      18.5805      0.00000
     19      19.1914      0.00000
     20      21.2458      0.00000
     21      21.3854      0.00000
     22      23.9311      0.00000

 k-point    29 :       0.1250   -0.1250    0.3750
  band No.  band energies     occupation 
      1      -9.8233      2.00000
      2      -7.9490      2.00000
      3      -2.3657      2.00000
      4      -1.7064      2.00000
      5       1.5893      2.00000
      6       2.4957      2.00000
      7       3.7413      2.00000
      8       4.8623      2.00000
      9       5.4044      2.00000
     10       5.4700      2.00000
     11       6.6515      2.00000
     12       7.4081      2.00000
     13       8.0213      2.00000
     14      11.2551      2.00000
     15      14.5761      2.00000
     16      16.3043      2.00000
     17      17.1772      0.19815
     18      17.3486      0.00021
     19      17.3853      0.00002
     20      18.9000      0.00000
     21      20.0201      0.00000
     22      21.4353      0.00000

 k-point    30 :       0.3750   -0.1250    0.3750
  band No.  band energies     occupation 
      1      -7.3199      2.00000
      2      -5.7399      2.00000
      3      -4.8077      2.00000
      4      -2.8579      2.00000
      5      -1.1438      2.00000
      6      -0.9126      2.00000
      7       2.6167      2.00000
      8       5.6669      2.00000
      9       5.7254      2.00000
     10       6.0311      2.00000
     11       7.5085      2.00000
     12       8.0349      2.00000
     13       9.4236      2.00000
     14       9.8088      2.00000
     15      11.2262      2.00000
     16      14.0431      2.00000
     17      19.0742      0.00000
     18      19.2535      0.00000
     19      19.3727      0.00000
     20      20.6728      0.00000
     21      20.8124      0.00000
     22      21.8843      0.00000

 k-point    31 :      -0.3750   -0.1250    0.3750
  band No.  band energies     occupation 
      1      -8.4527      2.00000
      2      -6.1356      2.00000
      3      -2.7834      2.00000
      4      -1.7486      2.00000
      5       0.0444      2.00000
      6       0.8111      2.00000
      7       1.8687      2.00000
      8       3.3930      2.00000
      9       3.8261      2.00000
     10       4.2612      2.00000
     11       4.7420      2.00000
     12       7.8942      2.00000
     13       9.3916      2.00000
     14      10.0204      2.00000
     15      15.5485      2.00000
     16      17.6208      0.00000
     17      18.1168      0.00000
     18      18.5715      0.00000
     19      20.4073      0.00000
     20      20.9130      0.00000
     21      21.8429      0.00000
     22      22.9758      0.00000

 k-point    32 :      -0.1250   -0.1250    0.3750
  band No.  band energies     occupation 
      1     -10.1963      2.00000
      2      -8.0837      2.00000
      3      -0.4900      2.00000
      4       0.6284      2.00000
      5       1.6572      2.00000
      6       1.7606      2.00000
      7       2.9811      2.00000
      8       4.0949      2.00000
      9       4.2065      2.00000
     10       4.6943      2.00000
     11       4.7377      2.00000
     12       7.4553      2.00000
     13       7.5296      2.00000
     14      10.8567      2.00000
     15      14.7380      2.00000
     16      15.9002      2.00000
     17      18.0402      0.00000
     18      18.2931      0.00000
     19      20.0303      0.00000
     20      20.7741      0.00000
     21      21.8033      0.00000
     22      22.8465      0.00000


--------------------------------------------------------------------------------------------------------


 soft charge-density along one line, spin component           1
         0         1         2         3         4         5         6         7         8         9
 total charge-density along one line
 
 pseudopotential strength for first ion, spin component:           1
  9.238  12.263   0.001   0.001   0.000  -0.003  -0.001  -0.001
 12.263  16.276   0.001   0.001   0.001  -0.004  -0.002  -0.001
  0.001   0.001  -3.478   0.000  -0.000   6.802  -0.001  -0.000
  0.001   0.001   0.000  -3.469  -0.002  -0.001   6.788   0.003
  0.000   0.001  -0.000  -0.002  -3.477  -0.000   0.003   6.801
 -0.003  -0.004   6.802  -0.001  -0.000 -15.389   0.002   0.001
 -0.001  -0.002  -0.001   6.788   0.003   0.002 -15.364  -0.007
 -0.001  -0.001  -0.000   0.003   6.801   0.001  -0.007 -15.386
 total augmentation occupancy for first ion, spin component:           1
  8.851  -4.230  -0.044  -0.052  -0.082   0.003  -0.003  -0.007
 -4.230   2.211   0.014   0.024   0.043  -0.005  -0.000   0.002
 -0.044   0.014   1.736   0.071   0.034   0.166   0.011   0.004
 -0.052   0.024   0.071   1.489  -0.001   0.011   0.098   0.007
 -0.082   0.043   0.034  -0.001   1.787   0.004   0.007   0.171
  0.003  -0.005   0.166   0.011   0.004   0.019   0.001   0.000
 -0.003  -0.000   0.011   0.098   0.007   0.001   0.012   0.001
 -0.007   0.002   0.004   0.007   0.171   0.000   0.001   0.019


------------------------ aborting loop because EDIFF is reached ----------------------------------------


    CHARGE:  cpu time    0.0876: real time    0.0878
    FORLOC:  cpu time    0.0036: real time    0.0036
    FORNL :  cpu time    0.2156: real time    0.2156
    STRESS:  cpu time    0.4474: real time    0.4474
    FORCOR:  cpu time    0.0480: real time    0.0480
    FORHAR:  cpu time    0.0129: real time    0.0129
    MIXING:  cpu time    0.0009: real time    0.0009
    OFIELD:  cpu time    0.0000: real time    0.0000

  FORCE on cell =-STRESS in cart. coord.  units (eV):
  Direction    XX          YY          ZZ          XY          YZ          ZX
  --------------------------------------------------------------------------------------
  Alpha Z   149.53378   149.53378   149.53378
  Ewald    -481.84309  -465.17636  -595.78961    -7.89012    -9.40230    42.44011
  Hartree    18.79511    27.06374    24.78232    -5.16855    -8.85564     8.43974
  E(xc)    -126.78949  -126.74158  -126.87197    -0.00225    -0.16757     0.22669
  Local     -34.72413   -57.81494    50.69400    12.81425    17.16718   -44.12805
  n-local   -24.75023   -24.56305   -37.68603     0.37495     2.11860     1.10850
  augment    -3.30171    -3.30621    -3.06101    -0.00975    -0.00838    -0.05195
  Kinetic   517.74479   517.44389   627.00919    -3.32003   -15.94258   -13.74078
  Fock        0.00000     0.00000     0.00000     0.00000     0.00000     0.00000
  -------------------------------------------------------------------------------------
  Total      14.66503    16.43927    88.61066    -3.20151   -15.09069    -5.70573
  in kB     668.28648   749.13855  4037.99399  -145.89298  -687.68376  -260.01045
  external pressure =     1818.47 kB  Pullay stress =        0.00 kB


 VOLUME and BASIS-vectors are now :
 -----------------------------------------------------------------------------
  energy-cutoff  :      600.00
  volume of cell :       35.16
      direct lattice vectors                 reciprocal lattice vectors
     2.017757324  1.287749323 -1.385135903     0.187279131  0.195932563 -0.266980399
     2.912869823 -0.497239401  1.678379161     0.208537198 -0.110334725  0.201203354
     0.350357698 -3.282279756 -2.163045686     0.041884200 -0.211080485 -0.135226153

  length of vectors
     2.765545951  3.398384062  3.946501939     0.380449176  0.310071450  0.254156191


 FORCES acting on ions
    electron-ion (+dipol)            ewald-force                    non-local-force                 convergence-correction
 -----------------------------------------------------------------------------------------------
   0.775E+00 0.449E+01 0.546E+00   -.112E+01 -.546E+01 -.992E+00   0.348E+00 0.967E+00 0.440E+00   -.143E-03 -.807E-04 0.230E-04
   -.775E+00 -.449E+01 -.546E+00   0.112E+01 0.546E+01 0.992E+00   -.348E+00 -.967E+00 -.440E+00   0.143E-03 0.807E-04 -.230E-04
   0.775E+00 0.449E+01 0.546E+00   -.112E+01 -.546E+01 -.992E+00   0.348E+00 0.967E+00 0.440E+00   -.143E-03 -.807E-04 0.230E-04
   -.775E+00 -.449E+01 -.546E+00   0.112E+01 0.546E+01 0.992E+00   -.348E+00 -.967E+00 -.440E+00   0.143E-03 0.807E-04 -.230E-04
   0.775E+00 0.449E+01 0.546E+00   -.112E+01 -.546E+01 -.992E+00   0.348E+00 0.967E+00 0.440E+00   -.143E-03 -.807E-04 0.230E-04
   -.775E+00 -.449E+01 -.546E+00   0.112E+01 0.546E+01 0.992E+00   -.348E+00 -.967E+00 -.440E+00   0.143E-03 0.807E-04 -.230E-04
   0.775E+00 0.449E+01 0.546E+00   -.112E+01 -.546E+01 -.992E+00   0.348E+00 0.967E+00 0.440E+00   -.143E-03 -.807E-04 0.230E-04
   -.775E+00 -.449E+01 -.546E+00   0.112E+01 0.546E+01 0.992E+00   -.348E+00 -.967E+00 -.440E+00   0.143E-03 0.807E-04 -.230E-04
 -----------------------------------------------------------------------------------------------
   0.448E-12 0.598E-12 0.155E-11   -.822E-14 -.355E-14 0.822E-14   0.111E-15 0.000E+00 -.555E-16   -.120E-13 -.347E-13 -.373E-13
 
 
 POSITION                                       TOTAL-FORCE (eV/Angst)
 -----------------------------------------------------------------------------------
      0.80733     -2.03241     -1.50095         0.001694     -0.002599     -0.006384
      2.18352     -2.49576     -1.59700        -0.001694      0.002599      0.006384
      2.08859     -0.63989      0.41976         0.001694     -0.002599     -0.006384
      3.46478     -1.10324      0.32371        -0.001694      0.002599      0.006384
      1.64103      0.25261     -1.11199         0.001694     -0.002599     -0.006384
      3.01722     -0.21074     -1.20804        -0.001694      0.002599      0.006384
      3.27264     -1.63715     -1.35433         0.001694     -0.002599     -0.006384
      4.64883     -2.10050     -1.45038        -0.001694      0.002599      0.006384
 -----------------------------------------------------------------------------------
    total drift:                                0.000000      0.000000      0.000000


--------------------------------------------------------------------------------------------------------



  FREE ENERGIE OF THE ION-ELECTRON SYSTEM (eV)
  ---------------------------------------------------
  free  energy   TOTEN  =       -50.23593300 eV

  energy  without entropy=      -50.23085698  energy(sigma->0) =      -50.23339499
 
 d Force = 0.8729939E-04[ 0.120E-05, 0.173E-03]  d Energy = 0.8799712E-04-0.698E-06
 d Force = 0.9006131E-02[ 0.871E-02, 0.930E-02]  d Ewald  = 0.9006184E-02-0.529E-07


--------------------------------------------------------------------------------------------------------


    POTLOK:  cpu time    0.0474: real time    0.0474


--------------------------------------------------------------------------------------------------------




--------------------------------------------------------------------------------------------------------


  
 reached required accuracy - stopping structural energy minimisation
     LOOP+:  cpu time    5.0535: real time    5.0542
    4ORBIT:  cpu time    0.0000: real time    0.0000

 total amount of memory used by VASP MPI-rank0    47771. kBytes
=======================================================================

   base      :      30000. kBytes
   nonl-proj :       2576. kBytes
   fftplans  :       3058. kBytes
   grid      :       5085. kBytes
   one-center:         24. kBytes
   wavefun   :       7028. kBytes
 
  
  
 General timing and accounting informations for this job:
 ========================================================
  
                  Total CPU time used (sec):      273.472
                            User time (sec):      247.715
                          System time (sec):       25.757
                         Elapsed time (sec):      274.034
  
                   Maximum memory used (kb):      132528.
                   Average memory used (kb):          N/A
  
                          Minor page faults:       271775
                          Major page faults:            6
                 Voluntary context switches:          590
