<?xml version="1.0" encoding="ISO-8859-1"?>
<modeling>
 <generator>
  <i name="program" type="string">vasp </i>
  <i name="version" type="string">6.2.1  </i>
  <i name="subversion" type="string">16May21 (build Oct 21 2023 21:03:18) complex                          parallel </i>
  <i name="platform" type="string">LinuxIFC </i>
  <i name="date" type="string">2024 05 28 </i>
  <i name="time" type="string">09:57:51 </i>
 </generator>
 <incar>
  <i type="int" name="ISTART">     0</i>
  <i type="string" name="PREC">accurate</i>
  <i type="int" name="IBRION">     2</i>
  <i name="EDIFF">      0.00000100</i>
  <i name="EDIFFG">      0.00001000</i>
  <i type="int" name="NSW">   300</i>
  <i type="int" name="ISIF">     2</i>
  <i type="int" name="ISYM">     2</i>
  <i name="ENCUT">    600.00000000</i>
  <i type="logical" name="LREAL"> F  </i>
  <i type="logical" name="LPLANE"> F  </i>
  <i type="int" name="ISMEAR">     0</i>
  <i name="SIGMA">      0.10000000</i>
  <i type="logical" name="LWAVE"> F  </i>
  <i type="logical" name="LCHARG"> F  </i>
 </incar>
 <primitive_cell>
  <structure name="primitive_cell" >
   <crystal>
    <varray name="basis" >
     <v>       2.91286982      -0.49723940       1.67837916 </v>
     <v>       2.07917001      -2.78225394       1.28942427 </v>
     <v>       3.29901339       2.68026950       0.53557652 </v>
    </varray>
    <i name="volume">      8.78963590 </i>
    <varray name="rec_basis" >
     <v>      -0.56272120       0.35727001       1.67827532 </v>
     <v>       0.54209506      -0.45245681      -1.07486541 </v>
     <v>       0.45832666      -0.03029584      -0.80441310 </v>
    </varray>
   </crystal>
   <varray name="positions" >
    <v>       0.62500000       0.75000000       0.50000000 </v>
    <v>       0.87500000       0.25000000       0.50000000 </v>
   </varray>
  </structure>
  <varray name="primitive_index" >
   <v type="int" >        1 </v>
   <v type="int" >        2 </v>
  </varray>
 </primitive_cell>
 <kpoints>
  <generation param="Monkhorst-Pack">
   <v type="int" name="divisions">       4        4        4 </v>
   <v name="usershift">      0.00000000       0.00000000       0.00000000 </v>
   <v name="genvec1">      0.25000000      -0.00000000      -0.00000000 </v>
   <v name="genvec2">     -0.00000000       0.25000000       0.00000000 </v>
   <v name="genvec3">     -0.00000000      -0.00000000       0.25000000 </v>
   <v name="shift">      0.50000000       0.50000000       0.50000000 </v>
  </generation>
  <varray name="kpointlist" >
   <v>       0.12500000       0.12500000       0.12500000 </v>
   <v>       0.37500000       0.12500000       0.12500000 </v>
   <v>      -0.37500000       0.12500000       0.12500000 </v>
   <v>      -0.12500000       0.12500000       0.12500000 </v>
   <v>       0.12500000       0.37500000       0.12500000 </v>
   <v>       0.37500000       0.37500000       0.12500000 </v>
   <v>      -0.37500000       0.37500000       0.12500000 </v>
   <v>      -0.12500000       0.37500000       0.12500000 </v>
   <v>       0.12500000      -0.37500000       0.12500000 </v>
   <v>       0.37500000      -0.37500000       0.12500000 </v>
   <v>      -0.37500000      -0.37500000       0.12500000 </v>
   <v>      -0.12500000      -0.37500000       0.12500000 </v>
   <v>       0.12500000      -0.12500000       0.12500000 </v>
   <v>       0.37500000      -0.12500000       0.12500000 </v>
   <v>      -0.37500000      -0.12500000       0.12500000 </v>
   <v>      -0.12500000      -0.12500000       0.12500000 </v>
   <v>       0.12500000       0.12500000       0.37500000 </v>
   <v>       0.37500000       0.12500000       0.37500000 </v>
   <v>      -0.37500000       0.12500000       0.37500000 </v>
   <v>      -0.12500000       0.12500000       0.37500000 </v>
   <v>       0.12500000       0.37500000       0.37500000 </v>
   <v>       0.37500000       0.37500000       0.37500000 </v>
   <v>      -0.37500000       0.37500000       0.37500000 </v>
   <v>      -0.12500000       0.37500000       0.37500000 </v>
   <v>       0.12500000      -0.37500000       0.37500000 </v>
   <v>       0.37500000      -0.37500000       0.37500000 </v>
   <v>      -0.37500000      -0.37500000       0.37500000 </v>
   <v>      -0.12500000      -0.37500000       0.37500000 </v>
   <v>       0.12500000      -0.12500000       0.37500000 </v>
   <v>       0.37500000      -0.12500000       0.37500000 </v>
   <v>      -0.37500000      -0.12500000       0.37500000 </v>
   <v>      -0.12500000      -0.12500000       0.37500000 </v>
  </varray>
  <varray name="weights" >
   <v>       0.03125000 </v>
   <v>       0.03125000 </v>
   <v>       0.03125000 </v>
   <v>       0.03125000 </v>
   <v>       0.03125000 </v>
   <v>       0.03125000 </v>
   <v>       0.03125000 </v>
   <v>       0.03125000 </v>
   <v>       0.03125000 </v>
   <v>       0.03125000 </v>
   <v>       0.03125000 </v>
   <v>       0.03125000 </v>
   <v>       0.03125000 </v>
   <v>       0.03125000 </v>
   <v>       0.03125000 </v>
   <v>       0.03125000 </v>
   <v>       0.03125000 </v>
   <v>       0.03125000 </v>
   <v>       0.03125000 </v>
   <v>       0.03125000 </v>
   <v>       0.03125000 </v>
   <v>       0.03125000 </v>
   <v>       0.03125000 </v>
   <v>       0.03125000 </v>
   <v>       0.03125000 </v>
   <v>       0.03125000 </v>
   <v>       0.03125000 </v>
   <v>       0.03125000 </v>
   <v>       0.03125000 </v>
   <v>       0.03125000 </v>
   <v>       0.03125000 </v>
   <v>       0.03125000 </v>
  </varray>
 </kpoints>
 <parameters>
  <separator name="general" >
   <i type="string" name="SYSTEM">unknown system</i>
   <i type="logical" name="LCOMPAT"> F  </i>
  </separator>
  <separator name="electronic" >
   <i type="string" name="PREC">accura</i>
   <i name="ENMAX">    600.00000000</i>
   <i name="ENAUG">    644.87300000</i>
   <i name="EDIFF">      0.00000100</i>
   <i type="int" name="IALGO">    38</i>
   <i type="int" name="IWAVPR">    11</i>
   <i type="int" name="NBANDS">    22</i>
   <i type="int" name="NBANDSLOW">    -1</i>
   <i type="int" name="NBANDSHIGH">    -1</i>
   <i name="NELECT">     32.00000000</i>
   <i type="int" name="TURBO">     0</i>
   <i type="int" name="IRESTART">     0</i>
   <i type="int" name="NREBOOT">     0</i>
   <i type="int" name="NMIN">     0</i>
   <i name="EREF">      0.00000000</i>
   <separator name="electronic smearing" >
    <i type="int" name="ISMEAR">     0</i>
    <i name="SIGMA">      0.10000000</i>
    <i name="KSPACING">      0.50000000</i>
    <i type="logical" name="KGAMMA"> T  </i>
    <i type="logical" name="KBLOWUP"> T  </i>
   </separator>
   <separator name="electronic projectors" >
    <i type="logical" name="LREAL"> F  </i>
    <v name="ROPT">      0.00000000</v>
    <i type="int" name="LMAXPAW">  -100</i>
    <i type="int" name="LMAXMIX">     2</i>
    <i type="logical" name="NLSPLINE"> F  </i>
   </separator>
   <separator name="electronic startup" >
    <i type="int" name="ISTART">     0</i>
    <i type="int" name="ICHARG">     2</i>
    <i type="int" name="INIWAV">     1</i>
   </separator>
   <separator name="electronic spin" >
    <i type="int" name="ISPIN">     1</i>
    <i type="logical" name="LNONCOLLINEAR"> F  </i>
    <v name="MAGMOM">      1.00000000      1.00000000      1.00000000      1.00000000      1.00000000      1.00000000      1.00000000      1.00000000</v>
    <i name="NUPDOWN">     -1.00000000</i>
    <i type="logical" name="LSORBIT"> F  </i>
    <v name="SAXIS">      0.00000000      0.00000000      1.00000000</v>
    <i type="logical" name="LSPIRAL"> F  </i>
    <v name="QSPIRAL">      0.00000000      0.00000000      0.00000000</v>
    <i type="logical" name="LZEROZ"> F  </i>
   </separator>
   <separator name="electronic exchange-correlation" >
    <i type="logical" name="LASPH"> F  </i>
    <i type="logical" name="LMETAGGA"> F  </i>
   </separator>
   <separator name="electronic convergence" >
    <i type="int" name="NELM">    60</i>
    <i type="int" name="NELMDL">    -5</i>
    <i type="int" name="NELMIN">     2</i>
    <i name="ENINI">    600.00000000</i>
    <separator name="electronic convergence detail" >
     <i type="logical" name="LDIAG"> T  </i>
     <i type="logical" name="LSUBROT"> F  </i>
     <i name="WEIMIN">      0.00100000</i>
     <i name="EBREAK">      0.00000001</i>
     <i name="DEPER">      0.30000000</i>
     <i type="int" name="NRMM">     4</i>
     <i name="TIME">      0.40000000</i>
    </separator>
   </separator>
   <separator name="electronic mixer" >
    <i name="AMIX">      0.40000000</i>
    <i name="BMIX">      1.00000000</i>
    <i name="AMIN">      0.10000000</i>
    <i name="AMIX_MAG">      1.60000000</i>
    <i name="BMIX_MAG">      1.00000000</i>
    <separator name="electronic mixer details" >
     <i type="int" name="IMIX">     4</i>
     <i type="logical" name="MIXFIRST"> F  </i>
     <i type="int" name="MAXMIX">   -45</i>
     <i name="WC">    100.00000000</i>
     <i type="int" name="INIMIX">     1</i>
     <i type="int" name="MIXPRE">     1</i>
     <i type="int" name="MREMOVE">     5</i>
    </separator>
   </separator>
   <separator name="electronic dipolcorrection" >
    <i type="logical" name="LDIPOL"> F  </i>
    <i type="logical" name="LMONO"> F  </i>
    <i type="int" name="IDIPOL">     0</i>
    <i name="EPSILON">      1.00000000</i>
    <v name="DIPOL">   -100.00000000   -100.00000000   -100.00000000</v>
    <i name="EFIELD">      0.00000000</i>
   </separator>
  </separator>
  <separator name="grids" >
   <i type="int" name="NGX">    24</i>
   <i type="int" name="NGY">    28</i>
   <i type="int" name="NGZ">    32</i>
   <i type="int" name="NGXF">    48</i>
   <i type="int" name="NGYF">    56</i>
   <i type="int" name="NGZF">    64</i>
   <i type="logical" name="ADDGRID"> F  </i>
  </separator>
  <separator name="ionic" >
   <i type="int" name="NSW">   300</i>
   <i type="int" name="IBRION">     2</i>
   <i type="int" name="MDALGO">     0</i>
   <i type="int" name="ISIF">     2</i>
   <i name="PSTRESS">      0.00000000</i>
   <i name="EDIFFG">      0.00001000</i>
   <i type="int" name="NFREE">     1</i>
   <i name="POTIM">      0.50000000</i>
   <i name="SMASS">     -3.00000000</i>
   <i name="SCALEE">      1.00000000</i>
  </separator>
  <separator name="ionic md" >
   <i name="TEBEG">      0.00010000</i>
   <i name="TEEND">      0.00010000</i>
   <i type="int" name="NBLOCK">     1</i>
   <i type="int" name="KBLOCK">   300</i>
   <i type="int" name="NPACO">   256</i>
   <i name="APACO">     16.00000000</i>
  </separator>
  <separator name="symmetry" >
   <i type="int" name="ISYM">     2</i>
   <i name="SYMPREC">      0.00001000</i>
  </separator>
  <separator name="dos" >
   <i type="int" name="LORBIT">     0</i>
   <v name="RWIGS">     -1.00000000</v>
   <i type="int" name="NEDOS">   301</i>
   <i name="EMIN">     10.00000000</i>
   <i name="EMAX">    -10.00000000</i>
   <i name="EFERMI">      0.00000000</i>
  </separator>
  <separator name="writing" >
   <i type="int" name="NWRITE">     2</i>
   <i type="logical" name="LWAVE"> F  </i>
   <i type="logical" name="LDOWNSAMPLE"> F  </i>
   <i type="logical" name="LCHARG"> F  </i>
   <i type="logical" name="LPARD"> F  </i>
   <i type="logical" name="LVTOT"> F  </i>
   <i type="logical" name="LVHAR"> F  </i>
   <i type="logical" name="LELF"> F  </i>
   <i type="logical" name="LOPTICS"> F  </i>
   <v name="STM">      0.00000000      0.00000000      0.00000000      0.00000000      0.00000000      0.00000000      0.00000000</v>
  </separator>
  <separator name="performance" >
   <i type="int" name="NPAR">     2</i>
   <i type="int" name="NSIM">     4</i>
   <i type="int" name="NBLK">    -1</i>
   <i type="logical" name="LPLANE"> F  </i>
   <i type="logical" name="LSCALAPACK"> T  </i>
   <i type="logical" name="LSCAAWARE"> F  </i>
   <i type="logical" name="LSCALU"> F  </i>
   <i type="logical" name="LASYNC"> F  </i>
   <i type="logical" name="LORBITALREAL"> F  </i>
  </separator>
  <separator name="miscellaneous" >
   <i type="int" name="IDIOT">     3</i>
   <i type="int" name="PHON_NSTRUCT">    -1</i>
   <i type="logical" name="LMUSIC"> F  </i>
   <v name="POMASS">     12.01100000</v>
   <v name="DARWINR">      0.00000000</v>
   <v name="DARWINV">      1.00000000</v>
   <i type="logical" name="LCORR"> T  </i>
  </separator>
  <i type="logical" name="GGA_COMPAT"> T  </i>
  <i type="logical" name="LBERRY"> F  </i>
  <i type="int" name="ICORELEVEL">     0</i>
  <i type="logical" name="LDAU"> F  </i>
  <i type="int" name="I_CONSTRAINED_M">     0</i>
  <separator name="electronic exchange-correlation" >
   <i type="string" name="GGA">--</i>
   <i type="int" name="VOSKOWN">     0</i>
   <i type="logical" name="LHFCALC"> F  </i>
   <i type="string" name="PRECFOCK"></i>
   <i type="logical" name="LSYMGRAD"> F  </i>
   <i type="logical" name="LHFONE"> F  </i>
   <i type="logical" name="LRHFCALC"> F  </i>
   <i type="logical" name="LTHOMAS"> F  </i>
   <i type="logical" name="LMODELHF"> F  </i>
   <i type="logical" name="LFOCKACE"> F  </i>
   <i name="ENCUT4O">     -1.00000000</i>
   <i type="int" name="EXXOEP">     0</i>
   <i type="int" name="FOURORBIT">     0</i>
   <i name="AEXX">      0.00000000</i>
   <i name="HFALPHA">      0.00000000</i>
   <i name="MCALPHA">      0.00000000</i>
   <i name="ALDAX">      1.00000000</i>
   <i name="AGGAX">      1.00000000</i>
   <i name="ALDAC">      1.00000000</i>
   <i name="AGGAC">      1.00000000</i>
   <i type="int" name="NKREDX">     1</i>
   <i type="int" name="NKREDY">     1</i>
   <i type="int" name="NKREDZ">     1</i>
   <i type="logical" name="SHIFTRED"> F  </i>
   <i type="logical" name="ODDONLY"> F  </i>
   <i type="logical" name="EVENONLY"> F  </i>
   <i type="int" name="LMAXFOCK">     0</i>
   <i type="int" name="NMAXFOCKAE">     0</i>
   <i type="logical" name="LFOCKAEDFT"> F  </i>
   <i name="HFSCREEN">      0.00000000</i>
   <i name="HFSCREENC">      0.00000000</i>
   <i type="int" name="NBANDSGWLOW">     0</i>
  </separator>
  <separator name="vdW DFT" >
   <i type="logical" name="LUSE_VDW"> F  </i>
   <i name="Zab_VDW">     -0.84910000</i>
   <i name="PARAM1">      0.12340000</i>
   <i name="PARAM2">      1.00000000</i>
   <i name="PARAM3">      0.00000000</i>
  </separator>
  <separator name="model GW" >
   <i type="int" name="MODEL_GW">     0</i>
   <i name="MODEL_EPS0">      2.63689077</i>
   <i name="MODEL_ALPHA">      1.00000000</i>
  </separator>
  <separator name="linear response parameters" >
   <i type="logical" name="LEPSILON"> F  </i>
   <i type="logical" name="LRPA"> F  </i>
   <i type="logical" name="LNABLA"> F  </i>
   <i type="logical" name="LVEL"> F  </i>
   <i type="int" name="KINTER">     0</i>
   <i name="CSHIFT">      0.10000000</i>
   <i name="OMEGAMAX">     -1.00000000</i>
   <i name="DEG_THRESHOLD">      0.00200000</i>
   <i name="RTIME">     -0.10000000</i>
   <i name="WPLASMAI">      0.00000000</i>
   <v name="DFIELD">      0.00000000      0.00000000      0.00000000</v>
   <v name="WPLASMA">      0.00000000      0.00000000      0.00000000      0.00000000      0.00000000      0.00000000      0.00000000      0.00000000      0.00000000</v>
  </separator>
  <separator name="orbital magnetization" >
   <i type="logical" name="NUCIND"> F  </i>
   <v name="MAGPOS">      0.00000000      0.00000000      0.00000000</v>
   <i type="logical" name="LNICSALL"> T  </i>
   <i type="logical" name="ORBITALMAG"> F  </i>
   <i type="logical" name="LMAGBLOCH"> F  </i>
   <i type="logical" name="LCHIMAG"> F  </i>
   <i type="logical" name="LGAUGE"> T  </i>
   <i type="int" name="MAGATOM">     0</i>
   <v name="MAGDIPOL">      0.00000000      0.00000000      0.00000000</v>
   <v name="AVECCONST">      0.00000000      0.00000000      0.00000000</v>
  </separator>
  <separator name="response functions" >
   <i type="logical" name="LFINITE_TEMPERATURE"> F  </i>
   <i type="logical" name="LADDER"> F  </i>
   <i type="logical" name="LRPAFORCE"> F  </i>
   <i type="logical" name="LFXC"> F  </i>
   <i type="logical" name="LHARTREE"> T  </i>
   <i type="int" name="IBSE">     0</i>
   <v type="int" name="KPOINT">    -1     0     0     0</v>
   <i type="logical" name="LTCTC"> F  </i>
   <i type="logical" name="LTCTE"> F  </i>
   <i type="logical" name="LTETE"> F  </i>
   <i type="logical" name="LTRIPLET"> F  </i>
   <i type="logical" name="LFXCEPS"> F  </i>
   <i type="logical" name="LFXHEG"> F  </i>
   <i type="int" name="NATURALO">     2</i>
   <i type="logical" name="LHOLEGF"> F  </i>
   <i type="logical" name="L2ORDER"> F  </i>
   <i type="logical" name="LDMP1"> F  </i>
   <i type="logical" name="LMP2LT"> F  </i>
   <i type="logical" name="LSMP2LT"> F  </i>
   <i type="logical" name="LGWLF"> F  </i>
   <i name="ENCUTGW">     -2.00000000</i>
   <i name="ENCUTGWSOFT">     -2.00000000</i>
   <i name="ENCUTLF">     -1.00000000</i>
   <i type="logical" name="LESF_SPLINES"> F  </i>
   <i type="int" name="LMAXMP2">    -1</i>
   <i name="SCISSOR">      0.00000000</i>
   <i type="int" name="NOMEGA">     0</i>
   <i type="int" name="NOMEGAR">     0</i>
   <i type="int" name="NBANDSGW">    -1</i>
   <i type="int" name="NBANDSO">    -1</i>
   <i type="int" name="NBANDSV">    -1</i>
   <i type="int" name="NELM">     1</i>
   <i type="int" name="NELMHF">     1</i>
   <i type="int" name="DIM">     3</i>
   <i type="int" name="IESPILON">     4</i>
   <i type="int" name="ANTIRES">     0</i>
   <i name="OMEGAMAX">    -30.00000000</i>
   <i name="OMEGAMIN">    -30.00000000</i>
   <i name="OMEGATL">   -200.00000000</i>
   <i type="int" name="OMEGAGRID">     0</i>
   <i name="CSHIFT">     -0.10000000</i>
   <i type="logical" name="LSELFENERGY"> F  </i>
   <i type="logical" name="LSPECTRAL"> F  </i>
   <i type="logical" name="LSPECTRALGW"> F  </i>
   <i type="logical" name="LSINGLES"> F  </i>
   <i type="logical" name="LFERMIGW"> F  </i>
   <i type="logical" name="ODDONLYGW"> F  </i>
   <i type="logical" name="EVENONLYGW"> F  </i>
   <i type="int" name="NKREDLFX">     1</i>
   <i type="int" name="NKREDLFY">     1</i>
   <i type="int" name="NKREDLFZ">     1</i>
   <i type="int" name="MAXMEM">  2800</i>
   <i type="int" name="TELESCOPE">     0</i>
   <i type="int" name="NTAUPAR">    -1</i>
   <i type="int" name="NOMEGAPAR">    -1</i>
   <i name="DAMP_NEWTON">      0.80000001</i>
   <i name="LAMBDA">      1.00000000</i>
  </separator>
  <separator name="External order field" >
   <i name="OFIELD_KAPPA">      0.00000000</i>
   <v name="OFIELD_K">      0.00000000      0.00000000      0.00000000</v>
   <i name="OFIELD_Q6_NEAR">      0.00000000</i>
   <i name="OFIELD_Q6_FAR">      0.00000000</i>
   <i name="OFIELD_A">      0.00000000</i>
  </separator>
 </parameters>
 <atominfo>
  <atoms>       8 </atoms>
  <types>       1 </types>
  <array name="atoms" >
   <dimension dim="1">ion</dimension>
   <field type="string">element</field>
   <field type="int">atomtype</field>
   <set>
    <rc><c>C </c><c>   1</c></rc>
    <rc><c>C </c><c>   1</c></rc>
    <rc><c>C </c><c>   1</c></rc>
    <rc><c>C </c><c>   1</c></rc>
    <rc><c>C </c><c>   1</c></rc>
    <rc><c>C </c><c>   1</c></rc>
    <rc><c>C </c><c>   1</c></rc>
    <rc><c>C </c><c>   1</c></rc>
   </set>
  </array>
  <array name="atomtypes" >
   <dimension dim="1">type</dimension>
   <field type="int">atomspertype</field>
   <field type="string">element</field>
   <field>mass</field>
   <field>valence</field>
   <field type="string">pseudopotential</field>
   <set>
    <rc><c>   8</c><c>C </c><c>     12.01100000</c><c>      4.00000000</c><c>  PAW_PBE C 08Apr2002                   </c></rc>
   </set>
  </array>
 </atominfo>
 <structure name="initialpos" >
  <crystal>
   <varray name="basis" >
    <v>       2.01775732       1.28774932      -1.38513590 </v>
    <v>       2.91286982      -0.49723940       1.67837916 </v>
    <v>       0.35035770      -3.28227976      -2.16304569 </v>
   </varray>
   <i name="volume">     35.15854358 </i>
   <varray name="rec_basis" >
    <v>       0.18727913       0.19593256      -0.26698040 </v>
    <v>       0.20853720      -0.11033473       0.20120335 </v>
    <v>       0.04188420      -0.21108048      -0.13522615 </v>
   </varray>
  </crystal>
  <varray name="positions" >
   <v>       0.12500000       0.12500000       0.62500000 </v>
   <v>       0.37500000       0.37500000       0.87500000 </v>
   <v>       0.12500000       0.62500000       0.12500000 </v>
   <v>       0.37500000       0.87500000       0.37500000 </v>
   <v>       0.62500000       0.12500000       0.12500000 </v>
   <v>       0.87500000       0.37500000       0.37500000 </v>
   <v>       0.62500000       0.62500000       0.62500000 </v>
   <v>       0.87500000       0.87500000       0.87500000 </v>
  </varray>
  <varray name="selective"  type="logical" >
   <v type="logical" >  T  T  T </v>
   <v type="logical" >  T  T  T </v>
   <v type="logical" >  T  T  T </v>
   <v type="logical" >  T  T  T </v>
   <v type="logical" >  T  T  T </v>
   <v type="logical" >  T  T  T </v>
   <v type="logical" >  T  T  T </v>
   <v type="logical" >  T  T  T </v>
  </varray>
  <nose>
   <v>      -3.00000000       0.00000000       0.00010000       0.00010000 </v>
  </nose>
 </structure>
 <calculation>
  <scstep>
   <time name="dav">    0.99    0.99</time>
   <time name="total">    1.04    1.04</time>
   <energy>
    <i name="alphaZ">    149.53377724 </i>
    <i name="ewald">  -1508.91019654 </i>
    <i name="hartreedc">    -55.68242493 </i>
    <i name="XCdc">    116.67036618 </i>
    <i name="pawpsdc">    868.17637104 </i>
    <i name="pawaedc">   -872.73161751 </i>
    <i name="eentropy">     -0.00421722 </i>
    <i name="bandstr">    239.50323819 </i>
    <i name="atom">   1177.20230207 </i>
    <i name="e_fr_energy">    113.75759852 </i>
    <i name="e_wo_entrp">    113.76181574 </i>
    <i name="e_0_energy">    113.75970713 </i>
   </energy>
  </scstep>
  <scstep>
   <time name="dav">    0.72    0.72</time>
   <time name="total">    0.72    0.73</time>
   <energy>
    <i name="e_fr_energy">    -46.62351841 </i>
    <i name="e_wo_entrp">    -46.61621214 </i>
    <i name="e_0_energy">    -46.61986527 </i>
   </energy>
  </scstep>
  <scstep>
   <time name="dav">    0.67    0.67</time>
   <time name="total">    0.67    0.67</time>
   <energy>
    <i name="e_fr_energy">    -52.74676558 </i>
    <i name="e_wo_entrp">    -52.73804031 </i>
    <i name="e_0_energy">    -52.74240294 </i>
   </energy>
  </scstep>
  <scstep>
   <time name="dav">    0.64    0.64</time>
   <time name="total">    0.64    0.64</time>
   <energy>
    <i name="e_fr_energy">    -52.83117921 </i>
    <i name="e_wo_entrp">    -52.82193392 </i>
    <i name="e_0_energy">    -52.82655657 </i>
   </energy>
  </scstep>
  <scstep>
   <time name="dav">    0.70    0.70</time>
   <time name="total">    0.76    0.76</time>
   <energy>
    <i name="e_fr_energy">    -52.83322129 </i>
    <i name="e_wo_entrp">    -52.82394507 </i>
    <i name="e_0_energy">    -52.82858318 </i>
   </energy>
  </scstep>
  <scstep>
   <time name="dav">    0.60    0.60</time>
   <time name="total">    0.69    0.69</time>
   <energy>
    <i name="e_fr_energy">    -49.46244976 </i>
    <i name="e_wo_entrp">    -49.45132945 </i>
    <i name="e_0_energy">    -49.45688961 </i>
   </energy>
  </scstep>
  <scstep>
   <time name="dav">    0.63    0.63</time>
   <time name="total">    0.71    0.71</time>
   <energy>
    <i name="e_fr_energy">    -48.56734095 </i>
    <i name="e_wo_entrp">    -48.55766080 </i>
    <i name="e_0_energy">    -48.56250087 </i>
   </energy>
  </scstep>
  <scstep>
   <time name="dav">    1.03    1.03</time>
   <time name="total">    1.11    1.11</time>
   <energy>
    <i name="e_fr_energy">    -48.57119431 </i>
    <i name="e_wo_entrp">    -48.56118064 </i>
    <i name="e_0_energy">    -48.56618747 </i>
   </energy>
  </scstep>
  <scstep>
   <time name="dav">    1.21    1.21</time>
   <time name="total">    1.35    1.35</time>
   <energy>
    <i name="e_fr_energy">    -48.57088304 </i>
    <i name="e_wo_entrp">    -48.56089205 </i>
    <i name="e_0_energy">    -48.56588755 </i>
   </energy>
  </scstep>
  <scstep>
   <time name="dav">    1.12    1.12</time>
   <time name="total">    1.27    1.27</time>
   <energy>
    <i name="e_fr_energy">    -48.57094147 </i>
    <i name="e_wo_entrp">    -48.56095874 </i>
    <i name="e_0_energy">    -48.56595010 </i>
   </energy>
  </scstep>
  <scstep>
   <time name="dav">    1.12    1.12</time>
   <time name="total">    1.26    1.26</time>
   <energy>
    <i name="e_fr_energy">    -48.57094216 </i>
    <i name="e_wo_entrp">    -48.56095564 </i>
    <i name="e_0_energy">    -48.56594890 </i>
   </energy>
  </scstep>
  <scstep>
   <time name="dav">    0.86    0.86</time>
   <time name="total">    1.00    1.00</time>
   <energy>
    <i name="e_fr_energy">    -48.57094343 </i>
    <i name="e_wo_entrp">    -48.56095484 </i>
    <i name="e_0_energy">    -48.56594914 </i>
   </energy>
  </scstep>
  <scstep>
   <time name="dav">    0.80    0.80</time>
   <time name="total">    0.85    0.85</time>
   <energy>
    <i name="alphaZ">    149.53377724 </i>
    <i name="ewald">  -1508.91019654 </i>
    <i name="hartreedc">    -91.50318358 </i>
    <i name="XCdc">    119.70732254 </i>
    <i name="pawpsdc">   4224.27866155 </i>
    <i name="pawaedc">  -4230.15646413 </i>
    <i name="eentropy">     -0.00998867 </i>
    <i name="bandstr">    111.28682616 </i>
    <i name="atom">   1177.20230207 </i>
    <i name="e_fr_energy">    -48.57094336 </i>
    <i name="e_wo_entrp">    -48.56095469 </i>
    <i name="e_0_energy">    -48.56594903 </i>
   </energy>
  </scstep>
  <structure>
   <crystal>
    <varray name="basis" >
     <v>       2.01775732       1.28774932      -1.38513590 </v>
     <v>       2.91286982      -0.49723940       1.67837916 </v>
     <v>       0.35035770      -3.28227976      -2.16304569 </v>
    </varray>
    <i name="volume">     35.15854358 </i>
    <varray name="rec_basis" >
     <v>       0.18727913       0.19593256      -0.26698040 </v>
     <v>       0.20853720      -0.11033473       0.20120335 </v>
     <v>       0.04188420      -0.21108048      -0.13522615 </v>
    </varray>
   </crystal>
   <varray name="positions" >
    <v>       0.12500000       0.12500000       0.62500000 </v>
    <v>       0.37500000       0.37500000       0.87500000 </v>
    <v>       0.12500000       0.62500000       0.12500000 </v>
    <v>       0.37500000       0.87500000       0.37500000 </v>
    <v>       0.62500000       0.12500000       0.12500000 </v>
    <v>       0.87500000       0.37500000       0.37500000 </v>
    <v>       0.62500000       0.62500000       0.62500000 </v>
    <v>       0.87500000       0.87500000       0.87500000 </v>
   </varray>
  </structure>
  <varray name="forces" >
   <v>       0.92540318      -4.54609703      -1.55808207 </v>
   <v>      -0.92540318       4.54609703       1.55808207 </v>
   <v>       0.92540318      -4.54609703      -1.55808207 </v>
   <v>      -0.92540318       4.54609703       1.55808207 </v>
   <v>       0.92540318      -4.54609703      -1.55808207 </v>
   <v>      -0.92540318       4.54609703       1.55808207 </v>
   <v>       0.92540318      -4.54609703      -1.55808207 </v>
   <v>      -0.92540318       4.54609703       1.55808207 </v>
  </varray>
  <varray name="stress" >
   <v>     428.59543059    -248.67865528      42.28605597 </v>
   <v>    -248.67865526    2331.66293252   -1770.53512175 </v>
   <v>      42.28605586   -1770.53512197    3868.52294556 </v>
  </varray>
  <energy>
   <i name="e_fr_energy">    -48.57094336 </i>
   <i name="e_wo_entrp">    -48.56095469 </i>
   <i name="e_0_energy">    -48.56594903 </i>
  </energy>
  <time name="totalsc">   13.03   13.04</time>
 </calculation>
 <calculation>
  <scstep>
   <time name="dav">    1.12    1.12</time>
   <time name="total">    1.28    1.28</time>
   <energy>
    <i name="alphaZ">    149.53377724 </i>
    <i name="ewald">  -1536.52201251 </i>
    <i name="hartreedc">    -69.00821768 </i>
    <i name="XCdc">    118.41129696 </i>
    <i name="pawpsdc">   4224.23766892 </i>
    <i name="pawaedc">  -4230.11543545 </i>
    <i name="eentropy">     -0.01042586 </i>
    <i name="bandstr">    121.89646822 </i>
    <i name="atom">   1177.20230207 </i>
    <i name="e_fr_energy">    -44.37457809 </i>
    <i name="e_wo_entrp">    -44.36415223 </i>
    <i name="e_0_energy">    -44.36936516 </i>
   </energy>
  </scstep>
  <scstep>
   <time name="dav">    1.19    1.19</time>
   <time name="total">    1.34    1.34</time>
   <energy>
    <i name="e_fr_energy">    -47.77046745 </i>
    <i name="e_wo_entrp">    -47.76216418 </i>
    <i name="e_0_energy">    -47.76631582 </i>
   </energy>
  </scstep>
  <scstep>
   <time name="dav">    1.16    1.16</time>
   <time name="total">    1.33    1.33</time>
   <energy>
    <i name="e_fr_energy">    -47.22422162 </i>
    <i name="e_wo_entrp">    -47.21688098 </i>
    <i name="e_0_energy">    -47.22055130 </i>
   </energy>
  </scstep>
  <scstep>
   <time name="dav">    1.46    1.46</time>
   <time name="total">    1.66    1.66</time>
   <energy>
    <i name="e_fr_energy">    -46.87002202 </i>
    <i name="e_wo_entrp">    -46.85884655 </i>
    <i name="e_0_energy">    -46.86443428 </i>
   </energy>
  </scstep>
  <scstep>
   <time name="dav">    1.69    1.69</time>
   <time name="total">    1.89    1.89</time>
   <energy>
    <i name="e_fr_energy">    -46.87782761 </i>
    <i name="e_wo_entrp">    -46.86656990 </i>
    <i name="e_0_energy">    -46.87219876 </i>
   </energy>
  </scstep>
  <scstep>
   <time name="dav">    1.52    1.52</time>
   <time name="total">    1.72    1.72</time>
   <energy>
    <i name="e_fr_energy">    -46.87791312 </i>
    <i name="e_wo_entrp">    -46.86666530 </i>
    <i name="e_0_energy">    -46.87228921 </i>
   </energy>
  </scstep>
  <scstep>
   <time name="dav">    1.39    1.39</time>
   <time name="total">    1.57    1.57</time>
   <energy>
    <i name="e_fr_energy">    -46.87791868 </i>
    <i name="e_wo_entrp">    -46.86665680 </i>
    <i name="e_0_energy">    -46.87228774 </i>
   </energy>
  </scstep>
  <scstep>
   <time name="dav">    1.53    1.53</time>
   <time name="total">    1.60    1.61</time>
   <energy>
    <i name="alphaZ">    149.53377724 </i>
    <i name="ewald">  -1536.52201251 </i>
    <i name="hartreedc">    -71.84649916 </i>
    <i name="XCdc">    118.66365118 </i>
    <i name="pawpsdc">   3819.01462086 </i>
    <i name="pawaedc">  -3824.74262749 </i>
    <i name="eentropy">     -0.01125567 </i>
    <i name="bandstr">    121.83012578 </i>
    <i name="atom">   1177.20230207 </i>
    <i name="e_fr_energy">    -46.87791770 </i>
    <i name="e_wo_entrp">    -46.86666203 </i>
    <i name="e_0_energy">    -46.87228987 </i>
   </energy>
  </scstep>
  <structure>
   <crystal>
    <varray name="basis" >
     <v>       2.01775732       1.28774932      -1.38513590 </v>
     <v>       2.91286982      -0.49723940       1.67837916 </v>
     <v>       0.35035770      -3.28227976      -2.16304569 </v>
    </varray>
    <i name="volume">     35.15854358 </i>
    <varray name="rec_basis" >
     <v>       0.18727913       0.19593256      -0.26698040 </v>
     <v>       0.20853720      -0.11033473       0.20120335 </v>
     <v>       0.04188420      -0.21108048      -0.13522615 </v>
    </varray>
   </crystal>
   <varray name="positions" >
    <v>       0.11045762       0.14338441       0.68332757 </v>
    <v>       0.38954238       0.35661559       0.81667243 </v>
    <v>       0.11045762       0.64338441       0.18332757 </v>
    <v>       0.38954238       0.85661559       0.31667243 </v>
    <v>       0.61045762       0.14338441       0.18332757 </v>
    <v>       0.88954238       0.35661559       0.31667243 </v>
    <v>       0.61045762       0.64338441       0.68332757 </v>
    <v>       0.88954238       0.85661559       0.81667243 </v>
   </varray>
  </structure>
  <varray name="forces" >
   <v>      -5.58236657       3.53811086       3.03082380 </v>
   <v>       5.58236657      -3.53811086      -3.03082380 </v>
   <v>      -5.58236657       3.53811086       3.03082380 </v>
   <v>       5.58236657      -3.53811086      -3.03082380 </v>
   <v>      -5.58236657       3.53811086       3.03082380 </v>
   <v>       5.58236657      -3.53811086      -3.03082380 </v>
   <v>      -5.58236657       3.53811086       3.03082380 </v>
   <v>       5.58236657      -3.53811086      -3.03082380 </v>
  </varray>
  <varray name="stress" >
   <v>    1873.66119506    -669.25983532    -572.84227562 </v>
   <v>    -669.25983543    1911.70177995   -1218.35841687 </v>
   <v>    -572.84227533   -1218.35841690    2391.39658088 </v>
  </varray>
  <energy>
   <i name="e_fr_energy">    -46.87791770 </i>
   <i name="e_wo_entrp">    -46.86666203 </i>
   <i name="e_0_energy">    -46.87228987 </i>
  </energy>
  <time name="totalsc">   13.67   13.68</time>
 </calculation>
 <calculation>
  <scstep>
   <time name="dav">    1.02    1.02</time>
   <time name="total">    1.17    1.17</time>
   <energy>
    <i name="alphaZ">    149.53377724 </i>
    <i name="ewald">  -1536.17325397 </i>
    <i name="hartreedc">    -72.99491262 </i>
    <i name="XCdc">    118.63003346 </i>
    <i name="pawpsdc">   3819.31312469 </i>
    <i name="pawaedc">  -3825.04127489 </i>
    <i name="eentropy">     -0.00780598 </i>
    <i name="bandstr">    119.97446892 </i>
    <i name="atom">   1177.20230207 </i>
    <i name="e_fr_energy">    -49.56354108 </i>
    <i name="e_wo_entrp">    -49.55573510 </i>
    <i name="e_0_energy">    -49.55963809 </i>
   </energy>
  </scstep>
  <scstep>
   <time name="dav">    1.07    1.07</time>
   <time name="total">    1.21    1.21</time>
   <energy>
    <i name="e_fr_energy">    -50.06345047 </i>
    <i name="e_wo_entrp">    -50.05332941 </i>
    <i name="e_0_energy">    -50.05838994 </i>
   </energy>
  </scstep>
  <scstep>
   <time name="dav">    1.13    1.13</time>
   <time name="total">    1.28    1.28</time>
   <energy>
    <i name="e_fr_energy">    -49.88890341 </i>
    <i name="e_wo_entrp">    -49.87851873 </i>
    <i name="e_0_energy">    -49.88371107 </i>
   </energy>
  </scstep>
  <scstep>
   <time name="dav">    1.24    1.24</time>
   <time name="total">    1.40    1.40</time>
   <energy>
    <i name="e_fr_energy">    -49.83805074 </i>
    <i name="e_wo_entrp">    -49.82740167 </i>
    <i name="e_0_energy">    -49.83272620 </i>
   </energy>
  </scstep>
  <scstep>
   <time name="dav">    1.17    1.17</time>
   <time name="total">    1.32    1.32</time>
   <energy>
    <i name="e_fr_energy">    -49.83958865 </i>
    <i name="e_wo_entrp">    -49.82895981 </i>
    <i name="e_0_energy">    -49.83427423 </i>
   </energy>
  </scstep>
  <scstep>
   <time name="dav">    1.19    1.19</time>
   <time name="total">    1.34    1.34</time>
   <energy>
    <i name="e_fr_energy">    -49.83960190 </i>
    <i name="e_wo_entrp">    -49.82898231 </i>
    <i name="e_0_energy">    -49.83429210 </i>
   </energy>
  </scstep>
  <scstep>
   <time name="dav">    1.14    1.14</time>
   <time name="total">    1.20    1.20</time>
   <energy>
    <i name="alphaZ">    149.53377724 </i>
    <i name="ewald">  -1536.17325397 </i>
    <i name="hartreedc">    -75.21629870 </i>
    <i name="XCdc">    118.71363674 </i>
    <i name="pawpsdc">   3757.42047043 </i>
    <i name="pawaedc">  -3763.07398194 </i>
    <i name="eentropy">     -0.01061976 </i>
    <i name="bandstr">    121.76436630 </i>
    <i name="atom">   1177.20230207 </i>
    <i name="e_fr_energy">    -49.83960158 </i>
    <i name="e_wo_entrp">    -49.82898183 </i>
    <i name="e_0_energy">    -49.83429171 </i>
   </energy>
  </scstep>
  <structure>
   <crystal>
    <varray name="basis" >
     <v>       2.01775732       1.28774932      -1.38513590 </v>
     <v>       2.91286982      -0.49723940       1.67837916 </v>
     <v>       0.35035770      -3.28227976      -2.16304569 </v>
    </varray>
    <i name="volume">     35.15854358 </i>
    <varray name="rec_basis" >
     <v>       0.18727913       0.19593256      -0.26698040 </v>
     <v>       0.20853720      -0.11033473       0.20120335 </v>
     <v>       0.04188420      -0.21108048      -0.13522615 </v>
    </varray>
   </crystal>
   <varray name="positions" >
    <v>       0.11941864       0.13205593       0.64738609 </v>
    <v>       0.38058136       0.36794407       0.85261391 </v>
    <v>       0.11941864       0.63205593       0.14738609 </v>
    <v>       0.38058136       0.86794407       0.35261391 </v>
    <v>       0.61941864       0.13205593       0.14738609 </v>
    <v>       0.88058136       0.36794407       0.35261391 </v>
    <v>       0.61941864       0.63205593       0.64738609 </v>
    <v>       0.88058136       0.86794407       0.85261391 </v>
   </varray>
  </structure>
  <varray name="forces" >
   <v>      -0.87790190       0.16741949      -0.28443372 </v>
   <v>       0.87790190      -0.16741949       0.28443372 </v>
   <v>      -0.87790190       0.16741949      -0.28443372 </v>
   <v>       0.87790190      -0.16741949       0.28443372 </v>
   <v>      -0.87790190       0.16741949      -0.28443372 </v>
   <v>       0.87790190      -0.16741949       0.28443372 </v>
   <v>      -0.87790190       0.16741949      -0.28443372 </v>
   <v>       0.87790190      -0.16741949       0.28443372 </v>
  </varray>
  <varray name="stress" >
   <v>     678.34105231    -308.10532278       6.28075921 </v>
   <v>    -308.10532227    1670.07843996   -1604.94638230 </v>
   <v>       6.28075885   -1604.94638181    3154.17811009 </v>
  </varray>
  <energy>
   <i name="e_fr_energy">    -49.83960158 </i>
   <i name="e_wo_entrp">    -49.82898183 </i>
   <i name="e_0_energy">    -49.83429171 </i>
  </energy>
  <time name="totalsc">    9.88    9.88</time>
 </calculation>
 <calculation>
  <scstep>
   <time name="dav">    1.11    1.11</time>
   <time name="total">    1.27    1.27</time>
   <energy>
    <i name="alphaZ">    149.53377724 </i>
    <i name="ewald">  -1535.47980812 </i>
    <i name="hartreedc">    -75.53218905 </i>
    <i name="XCdc">    118.73054716 </i>
    <i name="pawpsdc">   3757.61709657 </i>
    <i name="pawaedc">  -3763.27040613 </i>
    <i name="eentropy">     -0.01117619 </i>
    <i name="bandstr">    121.36482932 </i>
    <i name="atom">   1177.20230207 </i>
    <i name="e_fr_energy">    -49.84502711 </i>
    <i name="e_wo_entrp">    -49.83385093 </i>
    <i name="e_0_energy">    -49.83943902 </i>
   </energy>
  </scstep>
  <scstep>
   <time name="dav">    1.12    1.12</time>
   <time name="total">    1.26    1.26</time>
   <energy>
    <i name="e_fr_energy">    -49.84480037 </i>
    <i name="e_wo_entrp">    -49.83370486 </i>
    <i name="e_0_energy">    -49.83925262 </i>
   </energy>
  </scstep>
  <scstep>
   <time name="dav">    1.12    1.12</time>
   <time name="total">    1.27    1.27</time>
   <energy>
    <i name="e_fr_energy">    -49.84452106 </i>
    <i name="e_wo_entrp">    -49.83351280 </i>
    <i name="e_0_energy">    -49.83901693 </i>
   </energy>
  </scstep>
  <scstep>
   <time name="dav">    1.07    1.07</time>
   <time name="total">    1.22    1.22</time>
   <energy>
    <i name="e_fr_energy">    -49.84452624 </i>
    <i name="e_wo_entrp">    -49.83350725 </i>
    <i name="e_0_energy">    -49.83901675 </i>
   </energy>
  </scstep>
  <scstep>
   <time name="dav">    0.85    0.85</time>
   <time name="total">    0.91    0.91</time>
   <energy>
    <i name="alphaZ">    149.53377724 </i>
    <i name="ewald">  -1535.47980812 </i>
    <i name="hartreedc">    -75.68961076 </i>
    <i name="XCdc">    118.74121740 </i>
    <i name="pawpsdc">   3768.58720431 </i>
    <i name="pawaedc">  -3774.24604192 </i>
    <i name="eentropy">     -0.01102139 </i>
    <i name="bandstr">    121.51745492 </i>
    <i name="atom">   1177.20230207 </i>
    <i name="e_fr_energy">    -49.84452624 </i>
    <i name="e_wo_entrp">    -49.83350485 </i>
    <i name="e_0_energy">    -49.83901555 </i>
   </energy>
  </scstep>
  <structure>
   <crystal>
    <varray name="basis" >
     <v>       2.01775732       1.28774932      -1.38513590 </v>
     <v>       2.91286982      -0.49723940       1.67837916 </v>
     <v>       0.35035770      -3.28227976      -2.16304569 </v>
    </varray>
    <i name="volume">     35.15854358 </i>
    <varray name="rec_basis" >
     <v>       0.18727913       0.19593256      -0.26698040 </v>
     <v>       0.20853720      -0.11033473       0.20120335 </v>
     <v>       0.04188420      -0.21108048      -0.13522615 </v>
    </varray>
   </crystal>
   <varray name="positions" >
    <v>       0.11967018       0.13173794       0.64637721 </v>
    <v>       0.38032982       0.36826206       0.85362279 </v>
    <v>       0.11967018       0.63173794       0.14637721 </v>
    <v>       0.38032982       0.86826206       0.35362279 </v>
    <v>       0.61967018       0.13173794       0.14637721 </v>
    <v>       0.88032982       0.36826206       0.35362279 </v>
    <v>       0.61967018       0.63173794       0.64637721 </v>
    <v>       0.88032982       0.86826206       0.85362279 </v>
   </varray>
  </structure>
  <varray name="forces" >
   <v>      -0.83922502       0.03182388      -0.36268016 </v>
   <v>       0.83922502      -0.03182388       0.36268016 </v>
   <v>      -0.83922502       0.03182388      -0.36268016 </v>
   <v>       0.83922502      -0.03182388       0.36268016 </v>
   <v>      -0.83922502       0.03182388      -0.36268016 </v>
   <v>       0.83922502      -0.03182388       0.36268016 </v>
   <v>      -0.83922502       0.03182388      -0.36268016 </v>
   <v>       0.83922502      -0.03182388       0.36268016 </v>
  </varray>
  <varray name="stress" >
   <v>     656.18213957    -308.00235794      20.59440057 </v>
   <v>    -308.00235873    1664.82868575   -1622.39484556 </v>
   <v>      20.59440074   -1622.39484498    3200.08139179 </v>
  </varray>
  <energy>
   <i name="e_fr_energy">    -49.84452624 </i>
   <i name="e_wo_entrp">    -49.83350485 </i>
   <i name="e_0_energy">    -49.83901555 </i>
  </energy>
  <time name="totalsc">    6.86    6.86</time>
 </calculation>
 <calculation>
  <scstep>
   <time name="dav">    1.07    1.07</time>
   <time name="total">    1.22    1.22</time>
   <energy>
    <i name="alphaZ">    149.53377724 </i>
    <i name="ewald">  -1535.15007760 </i>
    <i name="hartreedc">    -75.83845555 </i>
    <i name="XCdc">    118.74921767 </i>
    <i name="pawpsdc">   3768.63775652 </i>
    <i name="pawaedc">  -3774.29663035 </i>
    <i name="eentropy">     -0.01216725 </i>
    <i name="bandstr">    121.32891967 </i>
    <i name="atom">   1177.20230207 </i>
    <i name="e_fr_energy">    -49.84535758 </i>
    <i name="e_wo_entrp">    -49.83319033 </i>
    <i name="e_0_energy">    -49.83927396 </i>
   </energy>
  </scstep>
  <scstep>
   <time name="dav">    1.11    1.11</time>
   <time name="total">    1.25    1.25</time>
   <energy>
    <i name="e_fr_energy">    -49.84526376 </i>
    <i name="e_wo_entrp">    -49.83310155 </i>
    <i name="e_0_energy">    -49.83918265 </i>
   </energy>
  </scstep>
  <scstep>
   <time name="dav">    1.38    1.38</time>
   <time name="total">    1.54    1.54</time>
   <energy>
    <i name="e_fr_energy">    -49.84519639 </i>
    <i name="e_wo_entrp">    -49.83304428 </i>
    <i name="e_0_energy">    -49.83912033 </i>
   </energy>
  </scstep>
  <scstep>
   <time name="dav">    1.25    1.25</time>
   <time name="total">    1.42    1.42</time>
   <energy>
    <i name="e_fr_energy">    -49.84519771 </i>
    <i name="e_wo_entrp">    -49.83304402 </i>
    <i name="e_0_energy">    -49.83912086 </i>
   </energy>
  </scstep>
  <scstep>
   <time name="dav">    0.83    0.83</time>
   <time name="total">    0.89    0.89</time>
   <energy>
    <i name="alphaZ">    149.53377724 </i>
    <i name="ewald">  -1535.15007760 </i>
    <i name="hartreedc">    -75.94827266 </i>
    <i name="XCdc">    118.75719432 </i>
    <i name="pawpsdc">   3775.00718607 </i>
    <i name="pawaedc">  -3780.67013200 </i>
    <i name="eentropy">     -0.01215417 </i>
    <i name="bandstr">    121.43497917 </i>
    <i name="atom">   1177.20230207 </i>
    <i name="e_fr_energy">    -49.84519756 </i>
    <i name="e_wo_entrp">    -49.83304339 </i>
    <i name="e_0_energy">    -49.83912047 </i>
   </energy>
  </scstep>
  <structure>
   <crystal>
    <varray name="basis" >
     <v>       2.01775732       1.28774932      -1.38513590 </v>
     <v>       2.91286982      -0.49723940       1.67837916 </v>
     <v>       0.35035770      -3.28227976      -2.16304569 </v>
    </varray>
    <i name="volume">     35.15854358 </i>
    <varray name="rec_basis" >
     <v>       0.18727913       0.19593256      -0.26698040 </v>
     <v>       0.20853720      -0.11033473       0.20120335 </v>
     <v>       0.04188420      -0.21108048      -0.13522615 </v>
    </varray>
   </crystal>
   <varray name="positions" >
    <v>       0.11978422       0.13159376       0.64591979 </v>
    <v>       0.38021578       0.36840624       0.85408021 </v>
    <v>       0.11978422       0.63159376       0.14591979 </v>
    <v>       0.38021578       0.86840624       0.35408021 </v>
    <v>       0.61978422       0.13159376       0.14591979 </v>
    <v>       0.88021578       0.36840624       0.35408021 </v>
    <v>       0.61978422       0.63159376       0.64591979 </v>
    <v>       0.88021578       0.86840624       0.85408021 </v>
   </varray>
  </structure>
  <varray name="forces" >
   <v>      -0.83639612      -0.01686947      -0.38142864 </v>
   <v>       0.83639612       0.01686947       0.38142864 </v>
   <v>      -0.83639612      -0.01686947      -0.38142864 </v>
   <v>       0.83639612       0.01686947       0.38142864 </v>
   <v>      -0.83639612      -0.01686947      -0.38142864 </v>
   <v>       0.83639612       0.01686947       0.38142864 </v>
   <v>      -0.83639612      -0.01686947      -0.38142864 </v>
   <v>       0.83639612       0.01686947       0.38142864 </v>
  </varray>
  <varray name="stress" >
   <v>     640.23583511    -308.51163365      25.32312132 </v>
   <v>    -308.51163337    1663.72277307   -1636.65382556 </v>
   <v>      25.32312155   -1636.65382545    3227.69740972 </v>
  </varray>
  <energy>
   <i name="e_fr_energy">    -49.84519756 </i>
   <i name="e_wo_entrp">    -49.83304339 </i>
   <i name="e_0_energy">    -49.83912047 </i>
  </energy>
  <time name="totalsc">    7.32    7.32</time>
 </calculation>
 <calculation>
  <scstep>
   <time name="dav">    1.16    1.16</time>
   <time name="total">    1.32    1.32</time>
   <energy>
    <i name="alphaZ">    149.53377724 </i>
    <i name="ewald">  -1540.78374679 </i>
    <i name="hartreedc">    -73.24753140 </i>
    <i name="XCdc">    118.61269161 </i>
    <i name="pawpsdc">   3775.09691900 </i>
    <i name="pawaedc">  -3780.75988618 </i>
    <i name="eentropy">     -0.01214637 </i>
    <i name="bandstr">    124.41671362 </i>
    <i name="atom">   1177.20230207 </i>
    <i name="e_fr_energy">    -49.94090719 </i>
    <i name="e_wo_entrp">    -49.92876083 </i>
    <i name="e_0_energy">    -49.93483401 </i>
   </energy>
  </scstep>
  <scstep>
   <time name="dav">    1.23    1.23</time>
   <time name="total">    1.39    1.39</time>
   <energy>
    <i name="e_fr_energy">    -49.94728704 </i>
    <i name="e_wo_entrp">    -49.93541978 </i>
    <i name="e_0_energy">    -49.94135341 </i>
   </energy>
  </scstep>
  <scstep>
   <time name="dav">    1.15    1.15</time>
   <time name="total">    1.30    1.30</time>
   <energy>
    <i name="e_fr_energy">    -49.93017181 </i>
    <i name="e_wo_entrp">    -49.91872057 </i>
    <i name="e_0_energy">    -49.92444619 </i>
   </energy>
  </scstep>
  <scstep>
   <time name="dav">    1.15    1.15</time>
   <time name="total">    1.30    1.30</time>
   <energy>
    <i name="e_fr_energy">    -49.93041232 </i>
    <i name="e_wo_entrp">    -49.91898335 </i>
    <i name="e_0_energy">    -49.92469783 </i>
   </energy>
  </scstep>
  <scstep>
   <time name="dav">    1.20    1.20</time>
   <time name="total">    1.36    1.36</time>
   <energy>
    <i name="e_fr_energy">    -49.93040589 </i>
    <i name="e_wo_entrp">    -49.91896096 </i>
    <i name="e_0_energy">    -49.92468343 </i>
   </energy>
  </scstep>
  <scstep>
   <time name="dav">    1.11    1.11</time>
   <time name="total">    1.26    1.26</time>
   <energy>
    <i name="e_fr_energy">    -49.93040427 </i>
    <i name="e_wo_entrp">    -49.91896461 </i>
    <i name="e_0_energy">    -49.92468444 </i>
   </energy>
  </scstep>
  <scstep>
   <time name="dav">    0.85    0.85</time>
   <time name="total">    0.90    0.90</time>
   <energy>
    <i name="alphaZ">    149.53377724 </i>
    <i name="ewald">  -1540.78374679 </i>
    <i name="hartreedc">    -72.86983199 </i>
    <i name="XCdc">    118.59431074 </i>
    <i name="pawpsdc">   3705.86134738 </i>
    <i name="pawaedc">  -3711.49925126 </i>
    <i name="eentropy">     -0.01143930 </i>
    <i name="bandstr">    124.04212783 </i>
    <i name="atom">   1177.20230207 </i>
    <i name="e_fr_energy">    -49.93040409 </i>
    <i name="e_wo_entrp">    -49.91896479 </i>
    <i name="e_0_energy">    -49.92468444 </i>
   </energy>
  </scstep>
  <structure>
   <crystal>
    <varray name="basis" >
     <v>       2.01775732       1.28774932      -1.38513590 </v>
     <v>       2.91286982      -0.49723940       1.67837916 </v>
     <v>       0.35035770      -3.28227976      -2.16304569 </v>
    </varray>
    <i name="volume">     35.15854358 </i>
    <varray name="rec_basis" >
     <v>       0.18727913       0.19593256      -0.26698040 </v>
     <v>       0.20853720      -0.11033473       0.20120335 </v>
     <v>       0.04188420      -0.21108048      -0.13522615 </v>
    </varray>
   </crystal>
   <varray name="positions" >
    <v>       0.11683844       0.12174396       0.64877870 </v>
    <v>       0.38316156       0.37825604       0.85122130 </v>
    <v>       0.11683844       0.62174396       0.14877870 </v>
    <v>       0.38316156       0.87825604       0.35122130 </v>
    <v>       0.61683844       0.12174396       0.14877870 </v>
    <v>       0.88316156       0.37825604       0.35122130 </v>
    <v>       0.61683844       0.62174396       0.64877870 </v>
    <v>       0.88316156       0.87825604       0.85122130 </v>
   </varray>
  </structure>
  <varray name="forces" >
   <v>       0.71262666       0.48636550      -0.81171529 </v>
   <v>      -0.71262666      -0.48636550       0.81171529 </v>
   <v>       0.71262666       0.48636550      -0.81171529 </v>
   <v>      -0.71262666      -0.48636550       0.81171529 </v>
   <v>       0.71262666       0.48636550      -0.81171529 </v>
   <v>      -0.71262666      -0.48636550       0.81171529 </v>
   <v>       0.71262666       0.48636550      -0.81171529 </v>
   <v>      -0.71262666      -0.48636550       0.81171529 </v>
  </varray>
  <varray name="stress" >
   <v>     466.43794351    -208.65049970     -14.04984557 </v>
   <v>    -208.65049914    1264.76844563   -1466.17601782 </v>
   <v>     -14.04984568   -1466.17601785    3650.03982992 </v>
  </varray>
  <energy>
   <i name="e_fr_energy">    -49.93040409 </i>
   <i name="e_wo_entrp">    -49.91896479 </i>
   <i name="e_0_energy">    -49.92468444 </i>
  </energy>
  <time name="totalsc">    9.84    9.85</time>
 </calculation>
 <calculation>
  <scstep>
   <time name="dav">    0.74    0.74</time>
   <time name="total">    0.84    0.84</time>
   <energy>
    <i name="alphaZ">    149.53377724 </i>
    <i name="ewald">  -1539.50997745 </i>
    <i name="hartreedc">    -73.47136821 </i>
    <i name="XCdc">    118.62427702 </i>
    <i name="pawpsdc">   3705.79903876 </i>
    <i name="pawaedc">  -3711.43695033 </i>
    <i name="eentropy">     -0.01295337 </i>
    <i name="bandstr">    123.33005584 </i>
    <i name="atom">   1177.20230207 </i>
    <i name="e_fr_energy">    -49.94179845 </i>
    <i name="e_wo_entrp">    -49.92884507 </i>
    <i name="e_0_energy">    -49.93532176 </i>
   </energy>
  </scstep>
  <scstep>
   <time name="dav">    0.75    0.75</time>
   <time name="total">    0.84    0.84</time>
   <energy>
    <i name="e_fr_energy">    -49.94254210 </i>
    <i name="e_wo_entrp">    -49.92988604 </i>
    <i name="e_0_energy">    -49.93621407 </i>
   </energy>
  </scstep>
  <scstep>
   <time name="dav">    0.69    0.69</time>
   <time name="total">    0.78    0.78</time>
   <energy>
    <i name="e_fr_energy">    -49.94122338 </i>
    <i name="e_wo_entrp">    -49.92891138 </i>
    <i name="e_0_energy">    -49.93506738 </i>
   </energy>
  </scstep>
  <scstep>
   <time name="dav">    0.64    0.64</time>
   <time name="total">    0.73    0.73</time>
   <energy>
    <i name="e_fr_energy">    -49.94122672 </i>
    <i name="e_wo_entrp">    -49.92885071 </i>
    <i name="e_0_energy">    -49.93503872 </i>
   </energy>
  </scstep>
  <scstep>
   <time name="dav">    0.74    0.74</time>
   <time name="total">    0.77    0.77</time>
   <energy>
    <i name="alphaZ">    149.53377724 </i>
    <i name="ewald">  -1539.50997745 </i>
    <i name="hartreedc">    -73.51561075 </i>
    <i name="XCdc">    118.62336061 </i>
    <i name="pawpsdc">   3717.53728930 </i>
    <i name="pawaedc">  -3723.17618595 </i>
    <i name="eentropy">     -0.01239657 </i>
    <i name="bandstr">    123.37621489 </i>
    <i name="atom">   1177.20230207 </i>
    <i name="e_fr_energy">    -49.94122662 </i>
    <i name="e_wo_entrp">    -49.92883005 </i>
    <i name="e_0_energy">    -49.93502833 </i>
   </energy>
  </scstep>
  <structure>
   <crystal>
    <varray name="basis" >
     <v>       2.01775732       1.28774932      -1.38513590 </v>
     <v>       2.91286982      -0.49723940       1.67837916 </v>
     <v>       0.35035770      -3.28227976      -2.16304569 </v>
    </varray>
    <i name="volume">     35.15854358 </i>
    <varray name="rec_basis" >
     <v>       0.18727913       0.19593256      -0.26698040 </v>
     <v>       0.20853720      -0.11033473       0.20120335 </v>
     <v>       0.04188420      -0.21108048      -0.13522615 </v>
    </varray>
   </crystal>
   <varray name="positions" >
    <v>       0.11766895       0.12452094       0.64797268 </v>
    <v>       0.38233105       0.37547906       0.85202732 </v>
    <v>       0.11766895       0.62452094       0.14797268 </v>
    <v>       0.38233105       0.87547906       0.35202732 </v>
    <v>       0.61766895       0.12452094       0.14797268 </v>
    <v>       0.88233105       0.37547906       0.35202732 </v>
    <v>       0.61766895       0.62452094       0.64797268 </v>
    <v>       0.88233105       0.87547906       0.85202732 </v>
   </varray>
  </structure>
  <varray name="forces" >
   <v>       0.21399388       0.31821994      -0.68140615 </v>
   <v>      -0.21399388      -0.31821994       0.68140615 </v>
   <v>       0.21399388       0.31821994      -0.68140615 </v>
   <v>      -0.21399388      -0.31821994       0.68140615 </v>
   <v>       0.21399388       0.31821994      -0.68140615 </v>
   <v>      -0.21399388      -0.31821994       0.68140615 </v>
   <v>       0.21399388       0.31821994      -0.68140615 </v>
   <v>      -0.21399388      -0.31821994       0.68140615 </v>
  </varray>
  <varray name="stress" >
   <v>     522.50198696    -212.64358228      -7.59995262 </v>
   <v>    -212.64358255    1367.17350574   -1488.82295296 </v>
   <v>      -7.59995286   -1488.82295285    3512.16876267 </v>
  </varray>
  <energy>
   <i name="e_fr_energy">    -49.94122662 </i>
   <i name="e_wo_entrp">    -49.92883005 </i>
   <i name="e_0_energy">    -49.93502833 </i>
  </energy>
  <time name="totalsc">    4.58    4.58</time>
 </calculation>
 <calculation>
  <scstep>
   <time name="dav">    0.59    0.59</time>
   <time name="total">    0.68    0.68</time>
   <energy>
    <i name="alphaZ">    149.53377724 </i>
    <i name="ewald">  -1540.63773659 </i>
    <i name="hartreedc">    -72.74813267 </i>
    <i name="XCdc">    118.58673519 </i>
    <i name="pawpsdc">   3717.47511208 </i>
    <i name="pawaedc">  -3723.11402551 </i>
    <i name="eentropy">     -0.00748018 </i>
    <i name="bandstr">    123.62561560 </i>
    <i name="atom">   1177.20230207 </i>
    <i name="e_fr_energy">    -50.08383277 </i>
    <i name="e_wo_entrp">    -50.07635260 </i>
    <i name="e_0_energy">    -50.08009269 </i>
   </energy>
  </scstep>
  <scstep>
   <time name="dav">    0.74    0.74</time>
   <time name="total">    0.83    0.83</time>
   <energy>
    <i name="e_fr_energy">    -50.08742932 </i>
    <i name="e_wo_entrp">    -50.08015617 </i>
    <i name="e_0_energy">    -50.08379274 </i>
   </energy>
  </scstep>
  <scstep>
   <time name="dav">    1.13    1.13</time>
   <time name="total">    1.26    1.26</time>
   <energy>
    <i name="e_fr_energy">    -50.07811738 </i>
    <i name="e_wo_entrp">    -50.07099043 </i>
    <i name="e_0_energy">    -50.07455390 </i>
   </energy>
  </scstep>
  <scstep>
   <time name="dav">    1.08    1.08</time>
   <time name="total">    1.22    1.22</time>
   <energy>
    <i name="e_fr_energy">    -50.07826467 </i>
    <i name="e_wo_entrp">    -50.07114534 </i>
    <i name="e_0_energy">    -50.07470501 </i>
   </energy>
  </scstep>
  <scstep>
   <time name="dav">    1.06    1.06</time>
   <time name="total">    1.20    1.20</time>
   <energy>
    <i name="e_fr_energy">    -50.07826099 </i>
    <i name="e_wo_entrp">    -50.07114700 </i>
    <i name="e_0_energy">    -50.07470400 </i>
   </energy>
  </scstep>
  <scstep>
   <time name="dav">    0.93    0.93</time>
   <time name="total">    0.98    0.98</time>
   <energy>
    <i name="alphaZ">    149.53377724 </i>
    <i name="ewald">  -1540.63773659 </i>
    <i name="hartreedc">    -72.88097182 </i>
    <i name="XCdc">    118.60919343 </i>
    <i name="pawpsdc">   3714.60821295 </i>
    <i name="pawaedc">  -3720.25081877 </i>
    <i name="eentropy">     -0.00711366 </i>
    <i name="bandstr">    123.74489369 </i>
    <i name="atom">   1177.20230207 </i>
    <i name="e_fr_energy">    -50.07826147 </i>
    <i name="e_wo_entrp">    -50.07114780 </i>
    <i name="e_0_energy">    -50.07470463 </i>
   </energy>
  </scstep>
  <structure>
   <crystal>
    <varray name="basis" >
     <v>       2.01775732       1.28774932      -1.38513590 </v>
     <v>       2.91286982      -0.49723940       1.67837916 </v>
     <v>       0.35035770      -3.28227976      -2.16304569 </v>
    </varray>
    <i name="volume">     35.15854358 </i>
    <varray name="rec_basis" >
     <v>       0.18727913       0.19593256      -0.26698040 </v>
     <v>       0.20853720      -0.11033473       0.20120335 </v>
     <v>       0.04188420      -0.21108048      -0.13522615 </v>
    </varray>
   </crystal>
   <varray name="positions" >
    <v>       0.12560741       0.11538833       0.65052103 </v>
    <v>       0.37439259       0.38461167       0.84947897 </v>
    <v>       0.12560741       0.61538833       0.15052103 </v>
    <v>       0.37439259       0.88461167       0.34947897 </v>
    <v>       0.62560741       0.11538833       0.15052103 </v>
    <v>       0.87439259       0.38461167       0.34947897 </v>
    <v>       0.62560741       0.61538833       0.65052103 </v>
    <v>       0.87439259       0.88461167       0.84947897 </v>
   </varray>
  </structure>
  <varray name="forces" >
   <v>       0.28781908      -0.23029608      -0.40358490 </v>
   <v>      -0.28781908       0.23029608       0.40358490 </v>
   <v>       0.28781908      -0.23029608      -0.40358490 </v>
   <v>      -0.28781908       0.23029608       0.40358490 </v>
   <v>       0.28781908      -0.23029608      -0.40358490 </v>
   <v>      -0.28781908       0.23029608       0.40358490 </v>
   <v>       0.28781908      -0.23029608      -0.40358490 </v>
   <v>      -0.28781908       0.23029608       0.40358490 </v>
  </varray>
  <varray name="stress" >
   <v>     404.62183265    -219.29424684     -68.54336713 </v>
   <v>    -219.29424638    1220.97709618   -1358.91059813 </v>
   <v>     -68.54336768   -1358.91059814    3779.16380294 </v>
  </varray>
  <energy>
   <i name="e_fr_energy">    -50.07826147 </i>
   <i name="e_wo_entrp">    -50.07114780 </i>
   <i name="e_0_energy">    -50.07470463 </i>
  </energy>
  <time name="totalsc">    7.11    7.11</time>
 </calculation>
 <calculation>
  <scstep>
   <time name="dav">    0.95    0.96</time>
   <time name="total">    1.10    1.10</time>
   <energy>
    <i name="alphaZ">    149.53377724 </i>
    <i name="ewald">  -1540.82408394 </i>
    <i name="hartreedc">    -72.70942006 </i>
    <i name="XCdc">    118.60253601 </i>
    <i name="pawpsdc">   3714.55742377 </i>
    <i name="pawaedc">  -3720.19987422 </i>
    <i name="eentropy">     -0.00607484 </i>
    <i name="bandstr">    123.75373751 </i>
    <i name="atom">   1177.20230207 </i>
    <i name="e_fr_energy">    -50.08967646 </i>
    <i name="e_wo_entrp">    -50.08360162 </i>
    <i name="e_0_energy">    -50.08663904 </i>
   </energy>
  </scstep>
  <scstep>
   <time name="dav">    1.30    1.30</time>
   <time name="total">    1.42    1.43</time>
   <energy>
    <i name="e_fr_energy">    -50.09029149 </i>
    <i name="e_wo_entrp">    -50.08430113 </i>
    <i name="e_0_energy">    -50.08729631 </i>
   </energy>
  </scstep>
  <scstep>
   <time name="dav">    1.01    1.02</time>
   <time name="total">    1.15    1.15</time>
   <energy>
    <i name="e_fr_energy">    -50.08962962 </i>
    <i name="e_wo_entrp">    -50.08373321 </i>
    <i name="e_0_energy">    -50.08668142 </i>
   </energy>
  </scstep>
  <scstep>
   <time name="dav">    1.20    1.20</time>
   <time name="total">    1.36    1.36</time>
   <energy>
    <i name="e_fr_energy">    -50.08963477 </i>
    <i name="e_wo_entrp">    -50.08372831 </i>
    <i name="e_0_energy">    -50.08668154 </i>
   </energy>
  </scstep>
  <scstep>
   <time name="dav">    1.07    1.07</time>
   <time name="total">    1.12    1.13</time>
   <energy>
    <i name="alphaZ">    149.53377724 </i>
    <i name="ewald">  -1540.82408394 </i>
    <i name="hartreedc">    -72.74564519 </i>
    <i name="XCdc">    118.60780738 </i>
    <i name="pawpsdc">   3715.47590548 </i>
    <i name="pawaedc">  -3721.12178849 </i>
    <i name="eentropy">     -0.00590940 </i>
    <i name="bandstr">    123.78800022 </i>
    <i name="atom">   1177.20230207 </i>
    <i name="e_fr_energy">    -50.08963462 </i>
    <i name="e_wo_entrp">    -50.08372522 </i>
    <i name="e_0_energy">    -50.08667992 </i>
   </energy>
  </scstep>
  <structure>
   <crystal>
    <varray name="basis" >
     <v>       2.01775732       1.28774932      -1.38513590 </v>
     <v>       2.91286982      -0.49723940       1.67837916 </v>
     <v>       0.35035770      -3.28227976      -2.16304569 </v>
    </varray>
    <i name="volume">     35.15854358 </i>
    <varray name="rec_basis" >
     <v>       0.18727913       0.19593256      -0.26698040 </v>
     <v>       0.20853720      -0.11033473       0.20120335 </v>
     <v>       0.04188420      -0.21108048      -0.13522615 </v>
    </varray>
   </crystal>
   <varray name="positions" >
    <v>       0.12798006       0.11265877       0.65128268 </v>
    <v>       0.37201994       0.38734123       0.84871732 </v>
    <v>       0.12798006       0.61265877       0.15128268 </v>
    <v>       0.37201994       0.88734123       0.34871732 </v>
    <v>       0.62798006       0.11265877       0.15128268 </v>
    <v>       0.87201994       0.38734123       0.34871732 </v>
    <v>       0.62798006       0.61265877       0.65128268 </v>
    <v>       0.87201994       0.88734123       0.84871732 </v>
   </varray>
  </structure>
  <varray name="forces" >
   <v>       0.39733393      -0.35472913      -0.21973767 </v>
   <v>      -0.39733393       0.35472913       0.21973767 </v>
   <v>       0.39733393      -0.35472913      -0.21973767 </v>
   <v>      -0.39733393       0.35472913       0.21973767 </v>
   <v>       0.39733393      -0.35472913      -0.21973767 </v>
   <v>      -0.39733393       0.35472913       0.21973767 </v>
   <v>       0.39733393      -0.35472913      -0.21973767 </v>
   <v>      -0.39733393       0.35472913       0.21973767 </v>
  </varray>
  <varray name="stress" >
   <v>     389.49772466    -221.79238350     -81.80089098 </v>
   <v>    -221.79238316    1217.74530090   -1338.41459505 </v>
   <v>     -81.80089094   -1338.41459488    3798.36301454 </v>
  </varray>
  <energy>
   <i name="e_fr_energy">    -50.08963462 </i>
   <i name="e_wo_entrp">    -50.08372522 </i>
   <i name="e_0_energy">    -50.08667992 </i>
  </energy>
  <time name="totalsc">    7.16    7.17</time>
 </calculation>
 <calculation>
  <scstep>
   <time name="dav">    1.11    1.12</time>
   <time name="total">    1.27    1.27</time>
   <energy>
    <i name="alphaZ">    149.53377724 </i>
    <i name="ewald">  -1542.01422391 </i>
    <i name="hartreedc">    -71.99186680 </i>
    <i name="XCdc">    118.57010106 </i>
    <i name="pawpsdc">   3715.47447056 </i>
    <i name="pawaedc">  -3721.12034040 </i>
    <i name="eentropy">     -0.00377390 </i>
    <i name="bandstr">    124.22189118 </i>
    <i name="atom">   1177.20230207 </i>
    <i name="e_fr_energy">    -50.12766291 </i>
    <i name="e_wo_entrp">    -50.12388901 </i>
    <i name="e_0_energy">    -50.12577596 </i>
   </energy>
  </scstep>
  <scstep>
   <time name="dav">    1.33    1.33</time>
   <time name="total">    1.48    1.49</time>
   <energy>
    <i name="e_fr_energy">    -50.13211820 </i>
    <i name="e_wo_entrp">    -50.12845875 </i>
    <i name="e_0_energy">    -50.13028848 </i>
   </energy>
  </scstep>
  <scstep>
   <time name="dav">    1.11    1.11</time>
   <time name="total">    1.26    1.26</time>
   <energy>
    <i name="e_fr_energy">    -50.12577304 </i>
    <i name="e_wo_entrp">    -50.12196493 </i>
    <i name="e_0_energy">    -50.12386899 </i>
   </energy>
  </scstep>
  <scstep>
   <time name="dav">    1.22    1.22</time>
   <time name="total">    1.39    1.39</time>
   <energy>
    <i name="e_fr_energy">    -50.12593983 </i>
    <i name="e_wo_entrp">    -50.12212491 </i>
    <i name="e_0_energy">    -50.12403237 </i>
   </energy>
  </scstep>
  <scstep>
   <time name="dav">    1.23    1.24</time>
   <time name="total">    1.40    1.40</time>
   <energy>
    <i name="e_fr_energy">    -50.12594122 </i>
    <i name="e_wo_entrp">    -50.12213448 </i>
    <i name="e_0_energy">    -50.12403785 </i>
   </energy>
  </scstep>
  <scstep>
   <time name="dav">    1.13    1.13</time>
   <time name="total">    1.18    1.18</time>
   <energy>
    <i name="alphaZ">    149.53377724 </i>
    <i name="ewald">  -1542.01422391 </i>
    <i name="hartreedc">    -71.75182973 </i>
    <i name="XCdc">    118.55761236 </i>
    <i name="pawpsdc">   3697.17172754 </i>
    <i name="pawaedc">  -3702.80981542 </i>
    <i name="eentropy">     -0.00380964 </i>
    <i name="bandstr">    123.98831765 </i>
    <i name="atom">   1177.20230207 </i>
    <i name="e_fr_energy">    -50.12594185 </i>
    <i name="e_wo_entrp">    -50.12213221 </i>
    <i name="e_0_energy">    -50.12403703 </i>
   </energy>
  </scstep>
  <structure>
   <crystal>
    <varray name="basis" >
     <v>       2.01775732       1.28774932      -1.38513590 </v>
     <v>       2.91286982      -0.49723940       1.67837916 </v>
     <v>       0.35035770      -3.28227976      -2.16304569 </v>
    </varray>
    <i name="volume">     35.15854358 </i>
    <varray name="rec_basis" >
     <v>       0.18727913       0.19593256      -0.26698040 </v>
     <v>       0.20853720      -0.11033473       0.20120335 </v>
     <v>       0.04188420      -0.21108048      -0.13522615 </v>
    </varray>
   </crystal>
   <varray name="positions" >
    <v>       0.13310048       0.11205976       0.65646145 </v>
    <v>       0.36689952       0.38794024       0.84353855 </v>
    <v>       0.13310048       0.61205976       0.15646145 </v>
    <v>       0.36689952       0.88794024       0.34353855 </v>
    <v>       0.63310048       0.11205976       0.15646145 </v>
    <v>       0.86689952       0.38794024       0.34353855 </v>
    <v>       0.63310048       0.61205976       0.65646145 </v>
    <v>       0.86689952       0.88794024       0.84353855 </v>
   </varray>
  </structure>
  <varray name="forces" >
   <v>      -0.55772382       0.19094922      -0.00766666 </v>
   <v>       0.55772382      -0.19094922       0.00766666 </v>
   <v>      -0.55772382       0.19094922      -0.00766666 </v>
   <v>       0.55772382      -0.19094922       0.00766666 </v>
   <v>      -0.55772382       0.19094922      -0.00766666 </v>
   <v>       0.55772382      -0.19094922       0.00766666 </v>
   <v>      -0.55772382       0.19094922      -0.00766666 </v>
   <v>       0.55772382      -0.19094922       0.00766666 </v>
  </varray>
  <varray name="stress" >
   <v>     501.24782714    -213.12830538    -118.83056652 </v>
   <v>    -213.12830499    1125.25374639   -1115.55750294 </v>
   <v>    -118.83056663   -1115.55750215    3756.85338942 </v>
  </varray>
  <energy>
   <i name="e_fr_energy">    -50.12594185 </i>
   <i name="e_wo_entrp">    -50.12213221 </i>
   <i name="e_0_energy">    -50.12403703 </i>
  </energy>
  <time name="totalsc">    8.99    9.00</time>
 </calculation>
 <calculation>
  <scstep>
   <time name="dav">    1.01    1.01</time>
   <time name="total">    1.16    1.16</time>
   <energy>
    <i name="alphaZ">    149.53377724 </i>
    <i name="ewald">  -1541.80994156 </i>
    <i name="hartreedc">    -71.88809212 </i>
    <i name="XCdc">    118.56360947 </i>
    <i name="pawpsdc">   3697.22122627 </i>
    <i name="pawaedc">  -3702.85923193 </i>
    <i name="eentropy">     -0.00470334 </i>
    <i name="bandstr">    123.90748842 </i>
    <i name="atom">   1177.20230207 </i>
    <i name="e_fr_energy">    -50.13356549 </i>
    <i name="e_wo_entrp">    -50.12886214 </i>
    <i name="e_0_energy">    -50.13121381 </i>
   </energy>
  </scstep>
  <scstep>
   <time name="dav">    1.08    1.08</time>
   <time name="total">    1.22    1.22</time>
   <energy>
    <i name="e_fr_energy">    -50.13392168 </i>
    <i name="e_wo_entrp">    -50.12931885 </i>
    <i name="e_0_energy">    -50.13162026 </i>
   </energy>
  </scstep>
  <scstep>
   <time name="dav">    1.08    1.08</time>
   <time name="total">    1.22    1.22</time>
   <energy>
    <i name="e_fr_energy">    -50.13354680 </i>
    <i name="e_wo_entrp">    -50.12906942 </i>
    <i name="e_0_energy">    -50.13130811 </i>
   </energy>
  </scstep>
  <scstep>
   <time name="dav">    1.10    1.10</time>
   <time name="total">    1.25    1.25</time>
   <energy>
    <i name="e_fr_energy">    -50.13355224 </i>
    <i name="e_wo_entrp">    -50.12905995 </i>
    <i name="e_0_energy">    -50.13130610 </i>
   </energy>
  </scstep>
  <scstep>
   <time name="dav">    0.87    0.87</time>
   <time name="total">    0.93    0.93</time>
   <energy>
    <i name="alphaZ">    149.53377724 </i>
    <i name="ewald">  -1541.80994156 </i>
    <i name="hartreedc">    -71.93479226 </i>
    <i name="XCdc">    118.56559168 </i>
    <i name="pawpsdc">   3699.64845808 </i>
    <i name="pawaedc">  -3705.28633268 </i>
    <i name="eentropy">     -0.00449509 </i>
    <i name="bandstr">    123.95188056 </i>
    <i name="atom">   1177.20230207 </i>
    <i name="e_fr_energy">    -50.13355197 </i>
    <i name="e_wo_entrp">    -50.12905688 </i>
    <i name="e_0_energy">    -50.13130442 </i>
   </energy>
  </scstep>
  <structure>
   <crystal>
    <varray name="basis" >
     <v>       2.01775732       1.28774932      -1.38513590 </v>
     <v>       2.91286982      -0.49723940       1.67837916 </v>
     <v>       0.35035770      -3.28227976      -2.16304569 </v>
    </varray>
    <i name="volume">     35.15854358 </i>
    <varray name="rec_basis" >
     <v>       0.18727913       0.19593256      -0.26698040 </v>
     <v>       0.20853720      -0.11033473       0.20120335 </v>
     <v>       0.04188420      -0.21108048      -0.13522615 </v>
    </varray>
   </crystal>
   <varray name="positions" >
    <v>       0.13181012       0.11221071       0.65515638 </v>
    <v>       0.36818988       0.38778929       0.84484362 </v>
    <v>       0.13181012       0.61221071       0.15515638 </v>
    <v>       0.36818988       0.88778929       0.34484362 </v>
    <v>       0.63181012       0.11221071       0.15515638 </v>
    <v>       0.86818988       0.38778929       0.34484362 </v>
    <v>       0.63181012       0.61221071       0.65515638 </v>
    <v>       0.86818988       0.88778929       0.84484362 </v>
   </varray>
  </structure>
  <varray name="forces" >
   <v>      -0.26984476      -0.00333589      -0.13753516 </v>
   <v>       0.26984476       0.00333589       0.13753516 </v>
   <v>      -0.26984476      -0.00333589      -0.13753516 </v>
   <v>       0.26984476       0.00333589       0.13753516 </v>
   <v>      -0.26984476      -0.00333589      -0.13753516 </v>
   <v>       0.26984476       0.00333589       0.13753516 </v>
   <v>      -0.26984476      -0.00333589      -0.13753516 </v>
   <v>       0.26984476       0.00333589       0.13753516 </v>
  </varray>
  <varray name="stress" >
   <v>     457.85799120    -205.66484651    -110.15449105 </v>
   <v>    -205.66484658    1150.05283120   -1147.90673766 </v>
   <v>    -110.15449105   -1147.90673788    3778.31549904 </v>
  </varray>
  <energy>
   <i name="e_fr_energy">    -50.13355197 </i>
   <i name="e_wo_entrp">    -50.12905688 </i>
   <i name="e_0_energy">    -50.13130442 </i>
  </energy>
  <time name="totalsc">    6.85    6.85</time>
 </calculation>
 <calculation>
  <scstep>
   <time name="dav">    1.12    1.12</time>
   <time name="total">    1.28    1.28</time>
   <energy>
    <i name="alphaZ">    149.53377724 </i>
    <i name="ewald">  -1542.70334813 </i>
    <i name="hartreedc">    -71.33103152 </i>
    <i name="XCdc">    118.53878243 </i>
    <i name="pawpsdc">   3699.63121512 </i>
    <i name="pawaedc">  -3705.26911077 </i>
    <i name="eentropy">     -0.01288798 </i>
    <i name="bandstr">    124.26703485 </i>
    <i name="atom">   1177.20230207 </i>
    <i name="e_fr_energy">    -50.14326668 </i>
    <i name="e_wo_entrp">    -50.13037870 </i>
    <i name="e_0_energy">    -50.13682269 </i>
   </energy>
  </scstep>
  <scstep>
   <time name="dav">    1.32    1.32</time>
   <time name="total">    1.49    1.49</time>
   <energy>
    <i name="e_fr_energy">    -50.14302060 </i>
    <i name="e_wo_entrp">    -50.13051307 </i>
    <i name="e_0_energy">    -50.13676684 </i>
   </energy>
  </scstep>
  <scstep>
   <time name="dav">    1.19    1.19</time>
   <time name="total">    1.35    1.35</time>
   <energy>
    <i name="e_fr_energy">    -50.14076931 </i>
    <i name="e_wo_entrp">    -50.12880973 </i>
    <i name="e_0_energy">    -50.13478952 </i>
   </energy>
  </scstep>
  <scstep>
   <time name="dav">    1.07    1.07</time>
   <time name="total">    1.22    1.22</time>
   <energy>
    <i name="e_fr_energy">    -50.14082006 </i>
    <i name="e_wo_entrp">    -50.12883362 </i>
    <i name="e_0_energy">    -50.13482684 </i>
   </energy>
  </scstep>
  <scstep>
   <time name="dav">    1.15    1.15</time>
   <time name="total">    1.20    1.20</time>
   <energy>
    <i name="alphaZ">    149.53377724 </i>
    <i name="ewald">  -1542.70334813 </i>
    <i name="hartreedc">    -71.09810413 </i>
    <i name="XCdc">    118.52694800 </i>
    <i name="pawpsdc">   3689.55245858 </i>
    <i name="pawaedc">  -3695.18791679 </i>
    <i name="eentropy">     -0.01200263 </i>
    <i name="bandstr">    124.04506498 </i>
    <i name="atom">   1177.20230207 </i>
    <i name="e_fr_energy">    -50.14082080 </i>
    <i name="e_wo_entrp">    -50.12881817 </i>
    <i name="e_0_energy">    -50.13481949 </i>
   </energy>
  </scstep>
  <structure>
   <crystal>
    <varray name="basis" >
     <v>       2.01775732       1.28774932      -1.38513590 </v>
     <v>       2.91286982      -0.49723940       1.67837916 </v>
     <v>       0.35035770      -3.28227976      -2.16304569 </v>
    </varray>
    <i name="volume">     35.15854358 </i>
    <varray name="rec_basis" >
     <v>       0.18727913       0.19593256      -0.26698040 </v>
     <v>       0.20853720      -0.11033473       0.20120335 </v>
     <v>       0.04188420      -0.21108048      -0.13522615 </v>
    </varray>
   </crystal>
   <varray name="positions" >
    <v>       0.13378235       0.10914097       0.65790475 </v>
    <v>       0.36621765       0.39085903       0.84209525 </v>
    <v>       0.13378235       0.60914097       0.15790475 </v>
    <v>       0.36621765       0.89085903       0.34209525 </v>
    <v>       0.63378235       0.10914097       0.15790475 </v>
    <v>       0.86621765       0.39085903       0.34209525 </v>
    <v>       0.63378235       0.60914097       0.65790475 </v>
    <v>       0.86621765       0.89085903       0.84209525 </v>
   </varray>
  </structure>
  <varray name="forces" >
   <v>      -0.18001979       0.29840501      -0.13698171 </v>
   <v>       0.18001979      -0.29840501       0.13698171 </v>
   <v>      -0.18001979       0.29840501      -0.13698171 </v>
   <v>       0.18001979      -0.29840501       0.13698171 </v>
   <v>      -0.18001979       0.29840501      -0.13698171 </v>
   <v>       0.18001979      -0.29840501       0.13698171 </v>
   <v>      -0.18001979       0.29840501      -0.13698171 </v>
   <v>       0.18001979      -0.29840501       0.13698171 </v>
  </varray>
  <varray name="stress" >
   <v>     513.38456099    -155.92901870    -131.84623575 </v>
   <v>    -155.92901863    1071.16603002    -985.61586587 </v>
   <v>    -131.84623570    -985.61586559    3783.67612310 </v>
  </varray>
  <energy>
   <i name="e_fr_energy">    -50.14082080 </i>
   <i name="e_wo_entrp">    -50.12881817 </i>
   <i name="e_0_energy">    -50.13481949 </i>
  </energy>
  <time name="totalsc">    7.51    7.51</time>
 </calculation>
 <calculation>
  <scstep>
   <time name="dav">    1.09    1.09</time>
   <time name="total">    1.24    1.24</time>
   <energy>
    <i name="alphaZ">    149.53377724 </i>
    <i name="ewald">  -1543.09452372 </i>
    <i name="hartreedc">    -70.78823004 </i>
    <i name="XCdc">    118.51422561 </i>
    <i name="pawpsdc">   3689.26006397 </i>
    <i name="pawaedc">  -3694.89543763 </i>
    <i name="eentropy">     -0.00567063 </i>
    <i name="bandstr">    124.12037651 </i>
    <i name="atom">   1177.20230207 </i>
    <i name="e_fr_energy">    -50.15311661 </i>
    <i name="e_wo_entrp">    -50.14744598 </i>
    <i name="e_0_energy">    -50.15028130 </i>
   </energy>
  </scstep>
  <scstep>
   <time name="dav">    1.27    1.27</time>
   <time name="total">    1.43    1.43</time>
   <energy>
    <i name="e_fr_energy">    -50.15188420 </i>
    <i name="e_wo_entrp">    -50.14580659 </i>
    <i name="e_0_energy">    -50.14884540 </i>
   </energy>
  </scstep>
  <scstep>
   <time name="dav">    1.08    1.09</time>
   <time name="total">    1.22    1.22</time>
   <energy>
    <i name="e_fr_energy">    -50.15065998 </i>
    <i name="e_wo_entrp">    -50.14409813 </i>
    <i name="e_0_energy">    -50.14737906 </i>
   </energy>
  </scstep>
  <scstep>
   <time name="dav">    0.84    0.84</time>
   <time name="total">    0.96    0.96</time>
   <energy>
    <i name="e_fr_energy">    -50.15068972 </i>
    <i name="e_wo_entrp">    -50.14415304 </i>
    <i name="e_0_energy">    -50.14742138 </i>
   </energy>
  </scstep>
  <scstep>
   <time name="dav">    0.76    0.76</time>
   <time name="total">    0.86    0.86</time>
   <energy>
    <i name="e_fr_energy">    -50.15069079 </i>
    <i name="e_wo_entrp">    -50.14416459 </i>
    <i name="e_0_energy">    -50.14742769 </i>
   </energy>
  </scstep>
  <scstep>
   <time name="dav">    0.52    0.52</time>
   <time name="total">    0.56    0.56</time>
   <energy>
    <i name="alphaZ">    149.53377724 </i>
    <i name="ewald">  -1543.09452372 </i>
    <i name="hartreedc">    -70.50911706 </i>
    <i name="XCdc">    118.49706055 </i>
    <i name="pawpsdc">   3682.81769979 </i>
[...]
       <r>    3.7413    1.0000 </r>
       <r>    4.8623    1.0000 </r>
       <r>    5.4044    1.0000 </r>
       <r>    5.4700    1.0000 </r>
       <r>    6.6515    1.0000 </r>
       <r>    7.4081    1.0000 </r>
       <r>    8.0213    1.0000 </r>
       <r>   11.2551    1.0000 </r>
       <r>   14.5761    1.0000 </r>
       <r>   16.3043    1.0000 </r>
       <r>   17.1772    0.0991 </r>
       <r>   17.3486    0.0001 </r>
       <r>   17.3853    0.0000 </r>
       <r>   18.9000    0.0000 </r>
       <r>   20.0201    0.0000 </r>
       <r>   21.4353    0.0000 </r>
      </set>
      <set comment="kpoint 30">
       <r>   -7.3199    1.0000 </r>
       <r>   -5.7399    1.0000 </r>
       <r>   -4.8077    1.0000 </r>
       <r>   -2.8579    1.0000 </r>
       <r>   -1.1438    1.0000 </r>
       <r>   -0.9126    1.0000 </r>
       <r>    2.6167    1.0000 </r>
       <r>    5.6669    1.0000 </r>
       <r>    5.7254    1.0000 </r>
       <r>    6.0311    1.0000 </r>
       <r>    7.5085    1.0000 </r>
       <r>    8.0349    1.0000 </r>
       <r>    9.4236    1.0000 </r>
       <r>    9.8088    1.0000 </r>
       <r>   11.2262    1.0000 </r>
       <r>   14.0431    1.0000 </r>
       <r>   19.0742    0.0000 </r>
       <r>   19.2535    0.0000 </r>
       <r>   19.3727    0.0000 </r>
       <r>   20.6728    0.0000 </r>
       <r>   20.8124    0.0000 </r>
       <r>   21.8843    0.0000 </r>
      </set>
      <set comment="kpoint 31">
       <r>   -8.4527    1.0000 </r>
       <r>   -6.1356    1.0000 </r>
       <r>   -2.7834    1.0000 </r>
       <r>   -1.7486    1.0000 </r>
       <r>    0.0444    1.0000 </r>
       <r>    0.8111    1.0000 </r>
       <r>    1.8687    1.0000 </r>
       <r>    3.3930    1.0000 </r>
       <r>    3.8261    1.0000 </r>
       <r>    4.2612    1.0000 </r>
       <r>    4.7420    1.0000 </r>
       <r>    7.8942    1.0000 </r>
       <r>    9.3916    1.0000 </r>
       <r>   10.0204    1.0000 </r>
       <r>   15.5485    1.0000 </r>
       <r>   17.6208    0.0000 </r>
       <r>   18.1168    0.0000 </r>
       <r>   18.5715    0.0000 </r>
       <r>   20.4073    0.0000 </r>
       <r>   20.9130    0.0000 </r>
       <r>   21.8429    0.0000 </r>
       <r>   22.9758    0.0000 </r>
      </set>
      <set comment="kpoint 32">
       <r>  -10.1963    1.0000 </r>
       <r>   -8.0837    1.0000 </r>
       <r>   -0.4900    1.0000 </r>
       <r>    0.6284    1.0000 </r>
       <r>    1.6572    1.0000 </r>
       <r>    1.7606    1.0000 </r>
       <r>    2.9811    1.0000 </r>
       <r>    4.0949    1.0000 </r>
       <r>    4.2065    1.0000 </r>
       <r>    4.6943    1.0000 </r>
       <r>    4.7377    1.0000 </r>
       <r>    7.4553    1.0000 </r>
       <r>    7.5296    1.0000 </r>
       <r>   10.8567    1.0000 </r>
       <r>   14.7380    1.0000 </r>
       <r>   15.9002    1.0000 </r>
       <r>   18.0402    0.0000 </r>
       <r>   18.2931    0.0000 </r>
       <r>   20.0303    0.0000 </r>
       <r>   20.7741    0.0000 </r>
       <r>   21.8033    0.0000 </r>
       <r>   22.8465    0.0000 </r>
      </set>
     </set>
    </set>
   </array>
  </eigenvalues>
  <separator name="orbital magnetization" >
   <v name="MAGDIPOLOUT">      0.00000000      0.00000000      0.00000000</v>
  </separator>
  <dos>
   <i name="efermi">     17.08617760 </i>
   <total>
    <array>
     <dimension dim="1">gridpoints</dimension>
     <dimension dim="2">spin</dimension>
     <field>energy</field>
     <field>total</field>
     <field>integrated</field>
     <set>
      <set comment="spin 1">
       <r>   -12.8577     0.0000     0.0000 </r>
       <r>   -12.7273     0.0000     0.0000 </r>
       <r>   -12.5969     0.0000     0.0000 </r>
       <r>   -12.4665     0.0000     0.0000 </r>
       <r>   -12.3361     0.0000     0.0000 </r>
       <r>   -12.2057     0.0000     0.0000 </r>
       <r>   -12.0753     0.0000     0.0000 </r>
       <r>   -11.9449     0.0000     0.0000 </r>
       <r>   -11.8145     0.0000     0.0000 </r>
       <r>   -11.6841     0.0000     0.0000 </r>
       <r>   -11.5536     0.0000     0.0000 </r>
       <r>   -11.4232     0.0000     0.0000 </r>
       <r>   -11.2928     0.0006     0.0001 </r>
       <r>   -11.1624     0.0671     0.0088 </r>
       <r>   -11.0320     0.4948     0.0734 </r>
       <r>   -10.9016     0.3951     0.1249 </r>
       <r>   -10.7712     0.4457     0.1830 </r>
       <r>   -10.6408     0.4756     0.2450 </r>
       <r>   -10.5104     0.0379     0.2500 </r>
       <r>   -10.3799     0.0024     0.2503 </r>
       <r>   -10.2495     0.1061     0.2641 </r>
       <r>   -10.1191     0.3482     0.3095 </r>
       <r>    -9.9887     0.5584     0.3824 </r>
       <r>    -9.8583     0.9058     0.5005 </r>
       <r>    -9.7279     0.8454     0.6107 </r>
       <r>    -9.5975     0.1085     0.6249 </r>
       <r>    -9.4671     0.0015     0.6251 </r>
       <r>    -9.3367     0.0628     0.6333 </r>
       <r>    -9.2062     0.5318     0.7026 </r>
       <r>    -9.0758     1.0962     0.8456 </r>
       <r>    -8.9454     0.6463     0.9299 </r>
       <r>    -8.8150     0.3198     0.9716 </r>
       <r>    -8.6846     0.5853     1.0479 </r>
       <r>    -8.5542     0.3883     1.0985 </r>
       <r>    -8.4238     0.7772     1.1999 </r>
       <r>    -8.2934     1.0973     1.3430 </r>
       <r>    -8.1630     0.7652     1.4428 </r>
       <r>    -8.0325     1.2727     1.6088 </r>
       <r>    -7.9021     1.2841     1.7762 </r>
       <r>    -7.7717     0.2723     1.8117 </r>
       <r>    -7.6413     0.0260     1.8151 </r>
       <r>    -7.5109     0.5370     1.8852 </r>
       <r>    -7.3805     1.2883     2.0532 </r>
       <r>    -7.2501     0.8311     2.1616 </r>
       <r>    -7.1197     0.1951     2.1870 </r>
       <r>    -6.9893     0.0385     2.1920 </r>
       <r>    -6.8589     0.5135     2.2590 </r>
       <r>    -6.7284     1.0497     2.3959 </r>
       <r>    -6.5980     0.6474     2.4803 </r>
       <r>    -6.4676     0.6421     2.5640 </r>
       <r>    -6.3372     0.6563     2.6496 </r>
       <r>    -6.2068     0.6929     2.7400 </r>
       <r>    -6.0764     1.3876     2.9210 </r>
       <r>    -5.9460     1.0978     3.0641 </r>
       <r>    -5.8156     0.5159     3.1314 </r>
       <r>    -5.6852     0.7021     3.2230 </r>
       <r>    -5.5547     1.0787     3.3636 </r>
       <r>    -5.4243     1.3736     3.5428 </r>
       <r>    -5.2939     1.2872     3.7106 </r>
       <r>    -5.1635     2.3682     4.0195 </r>
       <r>    -5.0331     1.2408     4.1813 </r>
       <r>    -4.9027     0.6092     4.2607 </r>
       <r>    -4.7723     1.1092     4.4054 </r>
       <r>    -4.6419     0.2442     4.4372 </r>
       <r>    -4.5115     0.1354     4.4549 </r>
       <r>    -4.3810     0.5001     4.5201 </r>
       <r>    -4.2506     0.7488     4.6178 </r>
       <r>    -4.1202     0.9289     4.7389 </r>
       <r>    -3.9898     0.7190     4.8327 </r>
       <r>    -3.8594     0.9070     4.9510 </r>
       <r>    -3.7290     1.1411     5.0998 </r>
       <r>    -3.5986     0.6968     5.1906 </r>
       <r>    -3.4682     1.0893     5.3327 </r>
       <r>    -3.3378     1.9899     5.5922 </r>
       <r>    -3.2073     1.0797     5.7330 </r>
       <r>    -3.0769     0.8363     5.8421 </r>
       <r>    -2.9465     0.9034     5.9599 </r>
       <r>    -2.8161     1.3798     6.1398 </r>
       <r>    -2.6857     1.5036     6.3359 </r>
       <r>    -2.5553     0.6348     6.4187 </r>
       <r>    -2.4249     1.0165     6.5512 </r>
       <r>    -2.2945     1.3437     6.7265 </r>
       <r>    -2.1641     0.4233     6.7817 </r>
       <r>    -2.0337     0.2236     6.8108 </r>
       <r>    -1.9032     0.1330     6.8282 </r>
       <r>    -1.7728     0.9511     6.9522 </r>
       <r>    -1.6424     2.6477     7.2975 </r>
       <r>    -1.5120     2.9013     7.6759 </r>
       <r>    -1.3816     1.3136     7.8472 </r>
       <r>    -1.2512     0.2473     7.8794 </r>
       <r>    -1.1208     0.5326     7.9489 </r>
       <r>    -0.9904     1.3667     8.1271 </r>
       <r>    -0.8600     1.5127     8.3244 </r>
       <r>    -0.7295     1.1255     8.4712 </r>
       <r>    -0.5991     1.2676     8.6365 </r>
       <r>    -0.4687     1.4819     8.8297 </r>
       <r>    -0.3383     1.7783     9.0616 </r>
       <r>    -0.2079     1.0035     9.1925 </r>
       <r>    -0.0775     1.2145     9.3509 </r>
       <r>     0.0529     1.0850     9.4924 </r>
       <r>     0.1833     0.8769     9.6067 </r>
       <r>     0.3137     0.8677     9.7199 </r>
       <r>     0.4442     0.6700     9.8073 </r>
       <r>     0.5746     1.5870    10.0142 </r>
       <r>     0.7050     1.7450    10.2418 </r>
       <r>     0.8354     1.2504    10.4049 </r>
       <r>     0.9658     0.5583    10.4777 </r>
       <r>     1.0962     0.7248    10.5722 </r>
       <r>     1.2266     0.9025    10.6899 </r>
       <r>     1.3570     1.2137    10.8482 </r>
       <r>     1.4874     0.9755    10.9754 </r>
       <r>     1.6179     1.5730    11.1805 </r>
       <r>     1.7483     1.9051    11.4290 </r>
       <r>     1.8787     1.6478    11.6439 </r>
       <r>     2.0091     1.3906    11.8252 </r>
       <r>     2.1395     1.3734    12.0043 </r>
       <r>     2.2699     2.1690    12.2872 </r>
       <r>     2.4003     1.5923    12.4949 </r>
       <r>     2.5307     2.2685    12.7907 </r>
       <r>     2.6611     2.8319    13.1600 </r>
       <r>     2.7915     1.7804    13.3922 </r>
       <r>     2.9220     1.7535    13.6209 </r>
       <r>     3.0524     1.8001    13.8556 </r>
       <r>     3.1828     1.2312    14.0162 </r>
       <r>     3.3132     1.5153    14.2138 </r>
       <r>     3.4436     1.8865    14.4598 </r>
       <r>     3.5740     1.6628    14.6766 </r>
       <r>     3.7044     0.8433    14.7866 </r>
       <r>     3.8348     1.5701    14.9914 </r>
       <r>     3.9652     1.8158    15.2282 </r>
       <r>     4.0957     2.8723    15.6028 </r>
       <r>     4.2261     1.9475    15.8567 </r>
       <r>     4.3565     0.7991    15.9609 </r>
       <r>     4.4869     1.1503    16.1109 </r>
       <r>     4.6173     2.2441    16.4036 </r>
       <r>     4.7477     3.7001    16.8861 </r>
       <r>     4.8781     2.6661    17.2338 </r>
       <r>     5.0085     0.9033    17.3516 </r>
       <r>     5.1389     0.5466    17.4229 </r>
       <r>     5.2694     1.2533    17.5864 </r>
       <r>     5.3998     2.2324    17.8775 </r>
       <r>     5.5302     2.7518    18.2364 </r>
       <r>     5.6606     2.5473    18.5686 </r>
       <r>     5.7910     2.8027    18.9341 </r>
       <r>     5.9214     2.2853    19.2321 </r>
       <r>     6.0518     3.1099    19.6377 </r>
       <r>     6.1822     2.3230    19.9406 </r>
       <r>     6.3126     1.9254    20.1917 </r>
       <r>     6.4431     1.8613    20.4344 </r>
       <r>     6.5735     1.7167    20.6583 </r>
       <r>     6.7039     1.8084    20.8941 </r>
       <r>     6.8343     1.3225    21.0666 </r>
       <r>     6.9647     2.0667    21.3361 </r>
       <r>     7.0951     3.0522    21.7342 </r>
       <r>     7.2255     2.5499    22.0667 </r>
       <r>     7.3559     2.2866    22.3649 </r>
       <r>     7.4863     1.9572    22.6201 </r>
       <r>     7.6168     1.7946    22.8542 </r>
       <r>     7.7472     1.4014    23.0369 </r>
       <r>     7.8776     1.3121    23.2080 </r>
       <r>     8.0080     1.6692    23.4257 </r>
       <r>     8.1384     1.8561    23.6678 </r>
       <r>     8.2688     1.9548    23.9227 </r>
       <r>     8.3992     1.7814    24.1550 </r>
       <r>     8.5296     1.5868    24.3619 </r>
       <r>     8.6600     1.9123    24.6113 </r>
       <r>     8.7904     2.1473    24.8914 </r>
       <r>     8.9209     1.4771    25.0840 </r>
       <r>     9.0513     1.6366    25.2974 </r>
       <r>     9.1817     0.7404    25.3940 </r>
       <r>     9.3121     0.5992    25.4721 </r>
       <r>     9.4425     1.6010    25.6809 </r>
       <r>     9.5729     0.9570    25.8057 </r>
       <r>     9.7033     0.3496    25.8513 </r>
       <r>     9.8337     0.4815    25.9141 </r>
       <r>     9.9641     0.5035    25.9798 </r>
       <r>    10.0946     1.6115    26.1899 </r>
       <r>    10.2250     1.1207    26.3361 </r>
       <r>    10.3554     0.9541    26.4605 </r>
       <r>    10.4858     1.0391    26.5960 </r>
       <r>    10.6162     1.0495    26.7329 </r>
       <r>    10.7466     0.9247    26.8535 </r>
       <r>    10.8770     0.9237    26.9739 </r>
       <r>    11.0074     0.9964    27.1039 </r>
       <r>    11.1378     1.3332    27.2777 </r>
       <r>    11.2683     1.5406    27.4786 </r>
       <r>    11.3987     0.7898    27.5816 </r>
       <r>    11.5291     0.3207    27.6235 </r>
       <r>    11.6595     0.2796    27.6599 </r>
       <r>    11.7899     0.2746    27.6958 </r>
       <r>    11.9203     0.6355    27.7786 </r>
       <r>    12.0507     0.6721    27.8663 </r>
       <r>    12.1811     0.5155    27.9335 </r>
       <r>    12.3115     0.8007    28.0379 </r>
       <r>    12.4420     0.7249    28.1324 </r>
       <r>    12.5724     0.3893    28.1832 </r>
       <r>    12.7028     0.2622    28.2174 </r>
       <r>    12.8332     0.4769    28.2796 </r>
       <r>    12.9636     0.3797    28.3291 </r>
       <r>    13.0940     0.8807    28.4440 </r>
       <r>    13.2244     0.7411    28.5406 </r>
       <r>    13.3548     0.7294    28.6357 </r>
       <r>    13.4852     0.8505    28.7467 </r>
       <r>    13.6156     0.4650    28.8073 </r>
       <r>    13.7461     0.2704    28.8426 </r>
       <r>    13.8765     0.4882    28.9062 </r>
       <r>    14.0069     0.6627    28.9927 </r>
       <r>    14.1373     0.5194    29.0604 </r>
       <r>    14.2677     0.4854    29.1237 </r>
       <r>    14.3981     0.6158    29.2040 </r>
       <r>    14.5285     0.7109    29.2967 </r>
       <r>    14.6589     1.0773    29.4372 </r>
       <r>    14.7893     1.3286    29.6105 </r>
       <r>    14.9198     1.3032    29.7804 </r>
       <r>    15.0502     0.8323    29.8890 </r>
       <r>    15.1806     0.5912    29.9660 </r>
       <r>    15.3110     0.4127    30.0199 </r>
       <r>    15.4414     0.3925    30.0711 </r>
       <r>    15.5718     0.8186    30.1778 </r>
       <r>    15.7022     1.4622    30.3685 </r>
       <r>    15.8326     1.4959    30.5636 </r>
       <r>    15.9630     0.8492    30.6743 </r>
       <r>    16.0935     0.4253    30.7298 </r>
       <r>    16.2239     0.9270    30.8507 </r>
       <r>    16.3543     1.4074    31.0342 </r>
       <r>    16.4847     1.4185    31.2192 </r>
       <r>    16.6151     1.3960    31.4013 </r>
       <r>    16.7455     1.2972    31.5704 </r>
       <r>    16.8759     1.5504    31.7726 </r>
       <r>    17.0063     1.1582    31.9237 </r>
       <r>    17.1367     1.0246    32.0573 </r>
       <r>    17.2672     1.2948    32.2261 </r>
       <r>    17.3976     1.4992    32.4216 </r>
       <r>    17.5280     2.4181    32.7370 </r>
       <r>    17.6584     1.7896    32.9704 </r>
       <r>    17.7888     1.5419    33.1714 </r>
       <r>    17.9192     1.8138    33.4080 </r>
       <r>    18.0496     2.2402    33.7001 </r>
       <r>    18.1800     3.5817    34.1672 </r>
       <r>    18.3104     2.5546    34.5004 </r>
       <r>    18.4408     1.3348    34.6744 </r>
       <r>    18.5713     2.3087    34.9755 </r>
       <r>    18.7017     2.4606    35.2964 </r>
       <r>    18.8321     2.2079    35.5843 </r>
       <r>    18.9625     2.1299    35.8621 </r>
       <r>    19.0929     1.2844    36.0296 </r>
       <r>    19.2233     1.2168    36.1883 </r>
       <r>    19.3537     1.6188    36.3994 </r>
       <r>    19.4841     1.7962    36.6336 </r>
       <r>    19.6145     1.5051    36.8299 </r>
       <r>    19.7450     0.6701    36.9173 </r>
       <r>    19.8754     0.5371    36.9873 </r>
       <r>    20.0058     1.3432    37.1625 </r>
       <r>    20.1362     2.1055    37.4371 </r>
       <r>    20.2666     2.0111    37.6994 </r>
       <r>    20.3970     2.2041    37.9868 </r>
       <r>    20.5274     1.6925    38.2075 </r>
       <r>    20.6578     1.5358    38.4078 </r>
       <r>    20.7882     2.0947    38.6810 </r>
       <r>    20.9187     2.1006    38.9549 </r>
       <r>    21.0491     1.7770    39.1866 </r>
       <r>    21.1795     2.5187    39.5151 </r>
       <r>    21.3099     2.2704    39.8112 </r>
       <r>    21.4403     2.5334    40.1416 </r>
       <r>    21.5707     2.8037    40.5072 </r>
       <r>    21.7011     1.3708    40.6860 </r>
       <r>    21.8315     1.9531    40.9407 </r>
       <r>    21.9619     2.9197    41.3215 </r>
       <r>    22.0924     1.7121    41.5447 </r>
       <r>    22.2228     0.9567    41.6695 </r>
       <r>    22.3532     0.5324    41.7389 </r>
       <r>    22.4836     1.9355    41.9914 </r>
       <r>    22.6140     2.4106    42.3057 </r>
       <r>    22.7444     2.2172    42.5949 </r>
       <r>    22.8748     1.7768    42.8266 </r>
       <r>    23.0052     1.7165    43.0504 </r>
       <r>    23.1356     0.8125    43.1564 </r>
       <r>    23.2660     0.6127    43.2363 </r>
       <r>    23.3965     1.2833    43.4036 </r>
       <r>    23.5269     2.0599    43.6723 </r>
       <r>    23.6573     0.8637    43.7849 </r>
       <r>    23.7877     0.3708    43.8333 </r>
       <r>    23.9181     0.4863    43.8967 </r>
       <r>    24.0485     0.2894    43.9344 </r>
       <r>    24.1789     0.0234    43.9375 </r>
       <r>    24.3093     0.0030    43.9379 </r>
       <r>    24.4397     0.1175    43.9532 </r>
       <r>    24.5702     0.3012    43.9925 </r>
       <r>    24.7006     0.0570    43.9999 </r>
       <r>    24.8310     0.0006    44.0000 </r>
       <r>    24.9614     0.0000    44.0000 </r>
       <r>    25.0918     0.0000    44.0000 </r>
       <r>    25.2222     0.0000    44.0000 </r>
       <r>    25.3526     0.0000    44.0000 </r>
       <r>    25.4830     0.0000    44.0000 </r>
       <r>    25.6134     0.0000    44.0000 </r>
       <r>    25.7439     0.0000    44.0000 </r>
       <r>    25.8743     0.0000    44.0000 </r>
       <r>    26.0047     0.0000    44.0000 </r>
       <r>    26.1351     0.0000    44.0000 </r>
       <r>    26.2655     0.0000    44.0000 </r>
      </set>
     </set>
    </array>
   </total>
  </dos>
 </calculation>
 <structure name="finalpos" >
  <crystal>
   <varray name="basis" >
    <v>       2.01775732       1.28774932      -1.38513590 </v>
    <v>       2.91286982      -0.49723940       1.67837916 </v>
    <v>       0.35035770      -3.28227976      -2.16304569 </v>
   </varray>
   <i name="volume">     35.15854358 </i>
   <varray name="rec_basis" >
    <v>       0.18727913       0.19593256      -0.26698040 </v>
    <v>       0.20853720      -0.11033473       0.20120335 </v>
    <v>       0.04188420      -0.21108048      -0.13522615 </v>
   </varray>
  </crystal>
  <varray name="positions" >
   <v>       0.15370567       0.09060750       0.66578319 </v>
   <v>       0.34629433       0.40939250       0.83421681 </v>
   <v>       0.15370567       0.59060750       0.16578319 </v>
   <v>       0.34629433       0.90939250       0.33421681 </v>
   <v>       0.65370567       0.09060750       0.16578319 </v>
   <v>       0.84629433       0.40939250       0.33421681 </v>
   <v>       0.65370567       0.59060750       0.66578319 </v>
   <v>       0.84629433       0.90939250       0.83421681 </v>
  </varray>
  <varray name="selective"  type="logical" >
   <v type="logical" >  T  T  T </v>
   <v type="logical" >  T  T  T </v>
   <v type="logical" >  T  T  T </v>
   <v type="logical" >  T  T  T </v>
   <v type="logical" >  T  T  T </v>
   <v type="logical" >  T  T  T </v>
   <v type="logical" >  T  T  T </v>
   <v type="logical" >  T  T  T </v>
  </varray>
  <nose>
   <v>      -3.00000000       0.00000000       0.00010000       0.00010000 </v>
  </nose>
 </structure>
</modeling>
