unknown system                          
           1
     2.017757    1.287749   -1.385136
     2.912870   -0.497239    1.678379
     0.350358   -3.282280   -2.163046
   C 
     8
Direct configuration=     1
   0.12500000  0.12500000  0.62500000
   0.37500000  0.37500000  0.87500000
   0.12500000  0.62500000  0.12500000
   0.37500000  0.87500000  0.37500000
   0.62500000  0.12500000  0.12500000
   0.87500000  0.37500000  0.37500000
   0.62500000  0.62500000  0.62500000
   0.87500000  0.87500000  0.87500000
Direct configuration=     2
   0.11045762  0.14338441  0.68332757
   0.38954238  0.35661559  0.81667243
   0.11045762  0.64338441  0.18332757
   0.38954238  0.85661559  0.31667243
   0.61045762  0.14338441  0.18332757
   0.88954238  0.35661559  0.31667243
   0.61045762  0.64338441  0.68332757
   0.88954238  0.85661559  0.81667243
Direct configuration=     3
   0.11941864  0.13205593  0.64738609
   0.38058136  0.36794407  0.85261391
   0.11941864  0.63205593  0.14738609
   0.38058136  0.86794407  0.35261391
   0.61941864  0.13205593  0.14738609
   0.88058136  0.36794407  0.35261391
   0.61941864  0.63205593  0.64738609
   0.88058136  0.86794407  0.85261391
Direct configuration=     4
   0.11967018  0.13173794  0.64637721
   0.38032982  0.36826206  0.85362279
   0.11967018  0.63173794  0.14637721
   0.38032982  0.86826206  0.35362279
   0.61967018  0.13173794  0.14637721
   0.88032982  0.36826206  0.35362279
   0.61967018  0.63173794  0.64637721
   0.88032982  0.86826206  0.85362279
Direct configuration=     5
   0.11978422  0.13159376  0.64591979
   0.38021578  0.36840624  0.85408021
   0.11978422  0.63159376  0.14591979
   0.38021578  0.86840624  0.35408021
   0.61978422  0.13159376  0.14591979
   0.88021578  0.36840624  0.35408021
   0.61978422  0.63159376  0.64591979
   0.88021578  0.86840624  0.85408021
Direct configuration=     6
   0.11683844  0.12174396  0.64877870
   0.38316156  0.37825604  0.85122130
   0.11683844  0.62174396  0.14877870
   0.38316156  0.87825604  0.35122130
   0.61683844  0.12174396  0.14877870
   0.88316156  0.37825604  0.35122130
   0.61683844  0.62174396  0.64877870
   0.88316156  0.87825604  0.85122130
Direct configuration=     7
   0.11766895  0.12452094  0.64797268
   0.38233105  0.37547906  0.85202732
   0.11766895  0.62452094  0.14797268
   0.38233105  0.87547906  0.35202732
   0.61766895  0.12452094  0.14797268
   0.88233105  0.37547906  0.35202732
   0.61766895  0.62452094  0.64797268
   0.88233105  0.87547906  0.85202732
Direct configuration=     8
   0.12560741  0.11538833  0.65052103
   0.37439259  0.38461167  0.84947897
   0.12560741  0.61538833  0.15052103
   0.37439259  0.88461167  0.34947897
   0.62560741  0.11538833  0.15052103
   0.87439259  0.38461167  0.34947897
   0.62560741  0.61538833  0.65052103
   0.87439259  0.88461167  0.84947897
Direct configuration=     9
   0.12798006  0.11265877  0.65128268
   0.37201994  0.38734123  0.84871732
   0.12798006  0.61265877  0.15128268
   0.37201994  0.88734123  0.34871732
   0.62798006  0.11265877  0.15128268
   0.87201994  0.38734123  0.34871732
   0.62798006  0.61265877  0.65128268
   0.87201994  0.88734123  0.84871732
Direct configuration=    10
   0.13310048  0.11205976  0.65646145
   0.36689952  0.38794024  0.84353855
   0.13310048  0.61205976  0.15646145
   0.36689952  0.88794024  0.34353855
   0.63310048  0.11205976  0.15646145
   0.86689952  0.38794024  0.34353855
   0.63310048  0.61205976  0.65646145
   0.86689952  0.88794024  0.84353855
Direct configuration=    11
   0.13181012  0.11221071  0.65515638
   0.36818988  0.38778929  0.84484362
   0.13181012  0.61221071  0.15515638
   0.36818988  0.88778929  0.34484362
   0.63181012  0.11221071  0.15515638
   0.86818988  0.38778929  0.34484362
   0.63181012  0.61221071  0.65515638
   0.86818988  0.88778929  0.84484362
Direct configuration=    12
   0.13378235  0.10914097  0.65790475
   0.36621765  0.39085903  0.84209525
   0.13378235  0.60914097  0.15790475
   0.36621765  0.89085903  0.34209525
   0.63378235  0.10914097  0.15790475
   0.86621765  0.39085903  0.34209525
   0.63378235  0.60914097  0.65790475
   0.86621765  0.89085903  0.84209525
Direct configuration=    13
   0.13498536  0.10726852  0.65958117
   0.36501464  0.39273148  0.84041883
   0.13498536  0.60726852  0.15958117
   0.36501464  0.89273148  0.34041883
   0.63498536  0.10726852  0.15958117
   0.86501464  0.39273148  0.34041883
   0.63498536  0.60726852  0.65958117
   0.86501464  0.89273148  0.84041883
Direct configuration=    14
   0.13739137  0.10352362  0.66293402
   0.36260863  0.39647638  0.83706598
   0.13739137  0.60352362  0.16293402
   0.36260863  0.89647638  0.33706598
   0.63739137  0.10352362  0.16293402
   0.86260863  0.39647638  0.33706598
   0.63739137  0.60352362  0.66293402
   0.86260863  0.89647638  0.83706598
Direct configuration=    15
   0.13617192  0.10542168  0.66123467
   0.36382808  0.39457832  0.83876533
   0.13617192  0.60542168  0.16123467
   0.36382808  0.89457832  0.33876533
   0.63617192  0.10542168  0.16123467
   0.86382808  0.39457832  0.33876533
   0.63617192  0.60542168  0.66123467
   0.86382808  0.89457832  0.83876533
Direct configuration=    16
   0.13722748  0.10379555  0.66178633
   0.36277252  0.39620445  0.83821367
   0.13722748  0.60379555  0.16178633
   0.36277252  0.89620445  0.33821367
   0.63722748  0.10379555  0.16178633
   0.86277252  0.39620445  0.33821367
   0.63722748  0.60379555  0.66178633
   0.86277252  0.89620445  0.83821367
Direct configuration=    17
   0.14039417  0.09891717  0.66344131
   0.35960583  0.40108283  0.83655869
   0.14039417  0.59891717  0.16344131
   0.35960583  0.90108283  0.33655869
   0.64039417  0.09891717  0.16344131
   0.85960583  0.40108283  0.33655869
   0.64039417  0.59891717  0.66344131
   0.85960583  0.90108283  0.83655869
Direct configuration=    18
   0.13895360  0.10113641  0.66268844
   0.36104640  0.39886359  0.83731156
   0.13895360  0.60113641  0.16268844
   0.36104640  0.89886359  0.33731156
   0.63895360  0.10113641  0.16268844
   0.86104640  0.39886359  0.33731156
   0.63895360  0.60113641  0.66268844
   0.86104640  0.89886359  0.83731156
Direct configuration=    19
   0.13978707  0.10069775  0.66222015
   0.36021293  0.39930225  0.83777985
   0.13978707  0.60069775  0.16222015
   0.36021293  0.89930225  0.33777985
   0.63978707  0.10069775  0.16222015
   0.86021293  0.39930225  0.33777985
   0.63978707  0.60069775  0.66222015
   0.86021293  0.89930225  0.83777985
Direct configuration=    20
   0.14108495  0.10001468  0.66149094
   0.35891505  0.39998532  0.83850906
   0.14108495  0.60001468  0.16149094
   0.35891505  0.89998532  0.33850906
   0.64108495  0.10001468  0.16149094
   0.85891505  0.39998532  0.33850906
   0.64108495  0.60001468  0.66149094
   0.85891505  0.89998532  0.83850906
Direct configuration=    21
   0.14122123  0.09984248  0.66153874
   0.35877877  0.40015752  0.83846126
   0.14122123  0.59984248  0.16153874
   0.35877877  0.90015752  0.33846126
   0.64122123  0.09984248  0.16153874
   0.85877877  0.40015752  0.33846126
   0.64122123  0.59984248  0.66153874
   0.85877877  0.90015752  0.83846126
Direct configuration=    22
   0.14163007  0.09932587  0.66168217
   0.35836993  0.40067413  0.83831783
   0.14163007  0.59932587  0.16168217
   0.35836993  0.90067413  0.33831783
   0.64163007  0.09932587  0.16168217
   0.85836993  0.40067413  0.33831783
   0.64163007  0.59932587  0.66168217
   0.85836993  0.90067413  0.83831783
Direct configuration=    23
   0.14244777  0.09829267  0.66196901
   0.35755223  0.40170733  0.83803099
   0.14244777  0.59829267  0.16196901
   0.35755223  0.90170733  0.33803099
   0.64244777  0.09829267  0.16196901
   0.85755223  0.40170733  0.33803099
   0.64244777  0.59829267  0.66196901
   0.85755223  0.90170733  0.83803099
Direct configuration=    24
   0.14259727  0.09820269  0.66204011
   0.35740273  0.40179731  0.83795989
   0.14259727  0.59820269  0.16204011
   0.35740273  0.90179731  0.33795989
   0.64259727  0.09820269  0.16204011
   0.85740273  0.40179731  0.33795989
   0.64259727  0.59820269  0.66204011
   0.85740273  0.90179731  0.83795989
Direct configuration=    25
   0.14304579  0.09793274  0.66225341
   0.35695421  0.40206726  0.83774659
   0.14304579  0.59793274  0.16225341
   0.35695421  0.90206726  0.33774659
   0.64304579  0.09793274  0.16225341
   0.85695421  0.40206726  0.33774659
   0.64304579  0.59793274  0.66225341
   0.85695421  0.90206726  0.83774659
Direct configuration=    26
   0.14394282  0.09739286  0.66268001
   0.35605718  0.40260714  0.83731999
   0.14394282  0.59739286  0.16268001
   0.35605718  0.90260714  0.33731999
   0.64394282  0.09739286  0.16268001
   0.85605718  0.40260714  0.33731999
   0.64394282  0.59739286  0.66268001
   0.85605718  0.90260714  0.83731999
Direct configuration=    27
   0.14573689  0.09631309  0.66353321
   0.35426311  0.40368691  0.83646679
   0.14573689  0.59631309  0.16353321
   0.35426311  0.90368691  0.33646679
   0.64573689  0.09631309  0.16353321
   0.85426311  0.40368691  0.33646679
   0.64573689  0.59631309  0.66353321
   0.85426311  0.90368691  0.83646679
Direct configuration=    28
   0.14932502  0.09415354  0.66523961
   0.35067498  0.40584646  0.83476039
   0.14932502  0.59415354  0.16523961
   0.35067498  0.90584646  0.33476039
   0.64932502  0.09415354  0.16523961
   0.85067498  0.40584646  0.33476039
   0.64932502  0.59415354  0.66523961
   0.85067498  0.90584646  0.83476039
Direct configuration=    29
   0.15650128  0.08983446  0.66865240
   0.34349872  0.41016554  0.83134760
   0.15650128  0.58983446  0.16865240
   0.34349872  0.91016554  0.33134760
   0.65650128  0.08983446  0.16865240
   0.84349872  0.41016554  0.33134760
   0.65650128  0.58983446  0.66865240
   0.84349872  0.91016554  0.83134760
Direct configuration=    30
   0.15124606  0.09299735  0.66615320
   0.34875394  0.40700265  0.83384680
   0.15124606  0.59299735  0.16615320
   0.34875394  0.90700265  0.33384680
   0.65124606  0.09299735  0.16615320
   0.84875394  0.40700265  0.33384680
   0.65124606  0.59299735  0.66615320
   0.84875394  0.90700265  0.83384680
Direct configuration=    31
   0.15146554  0.09285632  0.66622907
   0.34853446  0.40714368  0.83377093
   0.15146554  0.59285632  0.16622907
   0.34853446  0.90714368  0.33377093
   0.65146554  0.09285632  0.16622907
   0.84853446  0.40714368  0.33377093
   0.65146554  0.59285632  0.66622907
   0.84853446  0.90714368  0.83377093
Direct configuration=    32
   0.15212395  0.09243325  0.66645667
   0.34787605  0.40756675  0.83354333
   0.15212395  0.59243325  0.16645667
   0.34787605  0.90756675  0.33354333
   0.65212395  0.09243325  0.16645667
   0.84787605  0.40756675  0.33354333
   0.65212395  0.59243325  0.66645667
   0.84787605  0.90756675  0.83354333
Direct configuration=    33
   0.15344079  0.09158711  0.66691189
   0.34655921  0.40841289  0.83308811
   0.15344079  0.59158711  0.16691189
   0.34655921  0.90841289  0.33308811
   0.65344079  0.09158711  0.16691189
   0.84655921  0.40841289  0.33308811
   0.65344079  0.59158711  0.66691189
   0.84655921  0.90841289  0.83308811
Direct configuration=    34
   0.15245874  0.09221814  0.66657241
   0.34754126  0.40778186  0.83342759
   0.15245874  0.59221814  0.16657241
   0.34754126  0.90778186  0.33342759
   0.65245874  0.09221814  0.16657241
   0.84754126  0.40778186  0.33342759
   0.65245874  0.59221814  0.66657241
   0.84754126  0.90778186  0.83342759
Direct configuration=    35
   0.15251386  0.09215840  0.66653933
   0.34748614  0.40784160  0.83346067
   0.15251386  0.59215840  0.16653933
   0.34748614  0.90784160  0.33346067
   0.65251386  0.09215840  0.16653933
   0.84748614  0.40784160  0.33346067
   0.65251386  0.59215840  0.66653933
   0.84748614  0.90784160  0.83346067
Direct configuration=    36
   0.15267921  0.09197918  0.66644011
   0.34732079  0.40802082  0.83355989
   0.15267921  0.59197918  0.16644011
   0.34732079  0.90802082  0.33355989
   0.65267921  0.09197918  0.16644011
   0.84732079  0.40802082  0.33355989
   0.65267921  0.59197918  0.66644011
   0.84732079  0.90802082  0.83355989
Direct configuration=    37
   0.15300992  0.09162074  0.66624166
   0.34699008  0.40837926  0.83375834
   0.15300992  0.59162074  0.16624166
   0.34699008  0.90837926  0.33375834
   0.65300992  0.09162074  0.16624166
   0.84699008  0.40837926  0.33375834
   0.65300992  0.59162074  0.66624166
   0.84699008  0.90837926  0.83375834
Direct configuration=    38
   0.15367133  0.09090387  0.66584477
   0.34632867  0.40909613  0.83415523
   0.15367133  0.59090387  0.16584477
   0.34632867  0.90909613  0.33415523
   0.65367133  0.09090387  0.16584477
   0.84632867  0.40909613  0.33415523
   0.65367133  0.59090387  0.66584477
   0.84632867  0.90909613  0.83415523
Direct configuration=    39
   0.15381190  0.09075152  0.66576042
   0.34618810  0.40924848  0.83423958
   0.15381190  0.59075152  0.16576042
   0.34618810  0.90924848  0.33423958
   0.65381190  0.09075152  0.16576042
   0.84618810  0.40924848  0.33423958
   0.65381190  0.59075152  0.66576042
   0.84618810  0.90924848  0.83423958
Direct configuration=    40
   0.15377763  0.09070506  0.66576777
   0.34622237  0.40929494  0.83423223
   0.15377763  0.59070506  0.16576777
   0.34622237  0.90929494  0.33423223
   0.65377763  0.09070506  0.16576777
   0.84622237  0.40929494  0.33423223
   0.65377763  0.59070506  0.66576777
   0.84622237  0.90929494  0.83423223
Direct configuration=    41
   0.15370567  0.09060750  0.66578319
   0.34629433  0.40939250  0.83421681
   0.15370567  0.59060750  0.16578319
   0.34629433  0.90939250  0.33421681
   0.65370567  0.09060750  0.16578319
   0.84629433  0.40939250  0.33421681
   0.65370567  0.59060750  0.66578319
   0.84629433  0.90939250  0.83421681
