   3   3   0   0
  0.4467845E+02  0.3154256E-09  0.3154256E-09  0.1555589E-08  0.1000000E-15
  1.000000000000000E-004
  CAR 
 unknown system                          
      6.87747282    -16.48951690  301     -1.14397662      1.00000000
    -16.490  0.0000E+00  0.0000E+00
    -16.412  0.0000E+00  0.0000E+00
    -16.334  0.0000E+00  0.0000E+00
    -16.256  0.0000E+00  0.0000E+00
    -16.178  0.0000E+00  0.0000E+00
    -16.100  0.0000E+00  0.0000E+00
    -16.022  0.0000E+00  0.0000E+00
    -15.944  0.1427E-14  0.1112E-15
    -15.866  0.2858E-11  0.2227E-12
    -15.789  0.1747E-08  0.1363E-09
    -15.711  0.3292E-06  0.2578E-07
    -15.633  0.1938E-04  0.1535E-05
    -15.555  0.3626E-03  0.2978E-04
    -15.477  0.2203E-02  0.2014E-03
    -15.399  0.4429E-02  0.5464E-03
    -15.321  0.2973E-02  0.7779E-03
    -15.243  0.6686E-03  0.8300E-03
    -15.165  0.2106E-03  0.8464E-03
    -15.087  0.1406E-02  0.9559E-03
    -15.010  0.4000E-02  0.1267E-02
    -14.932  0.3796E-02  0.1563E-02
    -14.854  0.1201E-02  0.1657E-02
    -14.776  0.1247E-03  0.1666E-02
    -14.698  0.4176E-05  0.1667E-02
    -14.620  0.1077E-05  0.1667E-02
    -14.542  0.5956E-04  0.1671E-02
    -14.464  0.1098E-02  0.1757E-02
    -14.386  0.6613E-02  0.2272E-02
    -14.309  0.1333E-01  0.3310E-02
    -14.231  0.1009E-01  0.4096E-02
    -14.153  0.7525E-02  0.4682E-02
    -14.075  0.8990E-02  0.5382E-02
    -13.997  0.4936E-02  0.5767E-02
    -13.919  0.2477E-02  0.5960E-02
    -13.841  0.9082E-02  0.6667E-02
    -13.763  0.1921E-01  0.8164E-02
    -13.685  0.1708E-01  0.9494E-02
    -13.608  0.1107E-01  0.1036E-01
    -13.530  0.1389E-01  0.1144E-01
    -13.452  0.1301E-01  0.1245E-01
    -13.374  0.7485E-02  0.1303E-01
    -13.296  0.3163E-02  0.1328E-01
    -13.218  0.6264E-03  0.1333E-01
    -13.140  0.4336E-04  0.1333E-01
    -13.062  0.9690E-06  0.1333E-01
    -12.984  0.6800E-08  0.1333E-01
    -12.907  0.1475E-10  0.1333E-01
    -12.829  0.9788E-14  0.1333E-01
    -12.751  0.2376E-17  0.1333E-01
    -12.673  0.0000E+00  0.1333E-01
    -12.595  0.0000E+00  0.1333E-01
    -12.517  0.0000E+00  0.1333E-01
    -12.439  0.0000E+00  0.1333E-01
    -12.361  0.0000E+00  0.1333E-01
    -12.283  0.0000E+00  0.1333E-01
    -12.206  0.0000E+00  0.1333E-01
    -12.128  0.0000E+00  0.1333E-01
    -12.050  0.0000E+00  0.1333E-01
    -11.972  0.0000E+00  0.1333E-01
    -11.894  0.0000E+00  0.1333E-01
    -11.816  0.0000E+00  0.1333E-01
    -11.738  0.0000E+00  0.1333E-01
    -11.660  0.0000E+00  0.1333E-01
    -11.582  0.0000E+00  0.1333E-01
    -11.505  0.0000E+00  0.1333E-01
    -11.427  0.0000E+00  0.1333E-01
    -11.349  0.0000E+00  0.1333E-01
    -11.271  0.0000E+00  0.1333E-01
    -11.193  0.0000E+00  0.1333E-01
    -11.115  0.0000E+00  0.1333E-01
    -11.037  0.0000E+00  0.1333E-01
    -10.959  0.0000E+00  0.1333E-01
    -10.881  0.0000E+00  0.1333E-01
    -10.804  0.0000E+00  0.1333E-01
    -10.726  0.0000E+00  0.1333E-01
    -10.648  0.0000E+00  0.1333E-01
    -10.570  0.0000E+00  0.1333E-01
    -10.492  0.0000E+00  0.1333E-01
    -10.414  0.0000E+00  0.1333E-01
    -10.336  0.0000E+00  0.1333E-01
    -10.258  0.0000E+00  0.1333E-01
    -10.180  0.0000E+00  0.1333E-01
    -10.103  0.0000E+00  0.1333E-01
    -10.025  0.0000E+00  0.1333E-01
     -9.947  0.0000E+00  0.1333E-01
     -9.869  0.0000E+00  0.1333E-01
     -9.791  0.0000E+00  0.1333E-01
     -9.713  0.0000E+00  0.1333E-01
     -9.635  0.0000E+00  0.1333E-01
     -9.557  0.0000E+00  0.1333E-01
     -9.479  0.0000E+00  0.1333E-01
     -9.402  0.0000E+00  0.1333E-01
     -9.324  0.0000E+00  0.1333E-01
     -9.246  0.0000E+00  0.1333E-01
     -9.168  0.0000E+00  0.1333E-01
     -9.090  0.0000E+00  0.1333E-01
     -9.012  0.0000E+00  0.1333E-01
     -8.934  0.0000E+00  0.1333E-01
     -8.856  0.0000E+00  0.1333E-01
     -8.778  0.0000E+00  0.1333E-01
     -8.701  0.0000E+00  0.1333E-01
     -8.623  0.0000E+00  0.1333E-01
     -8.545  0.0000E+00  0.1333E-01
     -8.467  0.0000E+00  0.1333E-01
     -8.389  0.0000E+00  0.1333E-01
     -8.311  0.0000E+00  0.1333E-01
     -8.233  0.0000E+00  0.1333E-01
     -8.155  0.0000E+00  0.1333E-01
     -8.077  0.0000E+00  0.1333E-01
     -8.000  0.0000E+00  0.1333E-01
     -7.922  0.0000E+00  0.1333E-01
     -7.844  0.0000E+00  0.1333E-01
     -7.766  0.0000E+00  0.1333E-01
     -7.688  0.0000E+00  0.1333E-01
     -7.610  0.1069E-16  0.1333E-01
     -7.532  0.4609E-13  0.1333E-01
     -7.454  0.6114E-10  0.1333E-01
     -7.376  0.2489E-07  0.1333E-01
     -7.299  0.3155E-05  0.1333E-01
     -7.221  0.1272E-03  0.1334E-01
     -7.143  0.1689E-02  0.1348E-01
     -7.065  0.7847E-02  0.1409E-01
     -6.987  0.1452E-01  0.1522E-01
     -6.909  0.1451E-01  0.1635E-01
     -6.831  0.1023E-01  0.1714E-01
     -6.753  0.4502E-02  0.1749E-01
     -6.675  0.4810E-02  0.1787E-01
     -6.597  0.1206E-01  0.1881E-01
     -6.520  0.1654E-01  0.2010E-01
     -6.442  0.1584E-01  0.2133E-01
     -6.364  0.1089E-01  0.2218E-01
     -6.286  0.3651E-02  0.2246E-01
     -6.208  0.4770E-03  0.2250E-01
     -6.130  0.3896E-03  0.2253E-01
     -6.052  0.2228E-02  0.2270E-01
     -5.974  0.4435E-02  0.2305E-01
     -5.896  0.2949E-02  0.2328E-01
     -5.819  0.7377E-03  0.2334E-01
     -5.741  0.1292E-02  0.2344E-01
     -5.663  0.5887E-02  0.2390E-01
     -5.585  0.1071E-01  0.2473E-01
     -5.507  0.1424E-01  0.2584E-01
     -5.429  0.1914E-01  0.2733E-01
     -5.351  0.1606E-01  0.2858E-01
     -5.273  0.1166E-01  0.2949E-01
     -5.195  0.7414E-02  0.3007E-01
     -5.118  0.5369E-02  0.3049E-01
     -5.040  0.3478E-02  0.3076E-01
     -4.962  0.9206E-03  0.3083E-01
     -4.884  0.5355E-03  0.3087E-01
     -4.806  0.4896E-02  0.3125E-01
     -4.728  0.1877E-01  0.3271E-01
     -4.650  0.2708E-01  0.3482E-01
     -4.572  0.1942E-01  0.3633E-01
     -4.494  0.1368E-01  0.3740E-01
     -4.417  0.8558E-02  0.3807E-01
     -4.339  0.3000E-02  0.3830E-01
     -4.261  0.1134E-02  0.3839E-01
     -4.183  0.3990E-02  0.3870E-01
     -4.105  0.8269E-02  0.3934E-01
     -4.027  0.6426E-02  0.3984E-01
     -3.949  0.2203E-02  0.4002E-01
     -3.871  0.2423E-02  0.4020E-01
     -3.793  0.4458E-02  0.4055E-01
     -3.716  0.3242E-02  0.4080E-01
     -3.638  0.2757E-02  0.4102E-01
     -3.560  0.6109E-02  0.4149E-01
     -3.482  0.1284E-01  0.4249E-01
     -3.404  0.2457E-01  0.4441E-01
     -3.326  0.2965E-01  0.4672E-01
     -3.248  0.2170E-01  0.4841E-01
     -3.170  0.8342E-02  0.4906E-01
     -3.092  0.1320E-02  0.4916E-01
     -3.015  0.1158E-03  0.4917E-01
     -2.937  0.7571E-03  0.4923E-01
     -2.859  0.4505E-02  0.4958E-01
     -2.781  0.8949E-02  0.5028E-01
     -2.703  0.6840E-02  0.5081E-01
     -2.625  0.6306E-02  0.5130E-01
     -2.547  0.1014E-01  0.5209E-01
     -2.469  0.1161E-01  0.5299E-01
     -2.391  0.1219E-01  0.5394E-01
     -2.314  0.1198E-01  0.5488E-01
     -2.236  0.9015E-02  0.5558E-01
     -2.158  0.4158E-02  0.5590E-01
     -2.080  0.4984E-02  0.5629E-01
     -2.002  0.9183E-02  0.5701E-01
     -1.924  0.1049E-01  0.5782E-01
     -1.846  0.5891E-02  0.5828E-01
     -1.768  0.3641E-02  0.5857E-01
     -1.690  0.6141E-02  0.5905E-01
     -1.613  0.6937E-02  0.5959E-01
     -1.535  0.4156E-02  0.5991E-01
     -1.457  0.1066E-02  0.5999E-01
     -1.379  0.9745E-04  0.6000E-01
     -1.301  0.2925E-05  0.6000E-01
     -1.223  0.2779E-07  0.6000E-01
     -1.145  0.8197E-10  0.6000E-01
     -1.067  0.7416E-13  0.6000E-01
     -0.989  0.2019E-16  0.6000E-01
     -0.912  0.0000E+00  0.6000E-01
     -0.834  0.0000E+00  0.6000E-01
     -0.756  0.0000E+00  0.6000E-01
     -0.678  0.0000E+00  0.6000E-01
     -0.600  0.0000E+00  0.6000E-01
     -0.522  0.0000E+00  0.6000E-01
     -0.444  0.0000E+00  0.6000E-01
     -0.366  0.0000E+00  0.6000E-01
     -0.288  0.0000E+00  0.6000E-01
     -0.211  0.0000E+00  0.6000E-01
     -0.133  0.1782E-17  0.6000E-01
     -0.055  0.9561E-14  0.6000E-01
      0.023  0.1453E-10  0.6000E-01
      0.101  0.6798E-08  0.6000E-01
      0.179  0.9985E-06  0.6000E-01
      0.257  0.4768E-04  0.6000E-01
      0.335  0.7848E-03  0.6006E-01
      0.413  0.4842E-02  0.6044E-01
      0.490  0.1232E-01  0.6140E-01
      0.568  0.1429E-01  0.6251E-01
      0.646  0.9189E-02  0.6323E-01
      0.724  0.8527E-02  0.6389E-01
      0.802  0.1314E-01  0.6492E-01
      0.880  0.1078E-01  0.6576E-01
      0.958  0.1219E-01  0.6671E-01
      1.036  0.2481E-01  0.6864E-01
      1.114  0.2473E-01  0.7057E-01
      1.192  0.1207E-01  0.7151E-01
      1.269  0.8493E-02  0.7217E-01
      1.347  0.1354E-01  0.7322E-01
      1.425  0.1191E-01  0.7415E-01
      1.503  0.1035E-01  0.7496E-01
      1.581  0.1164E-01  0.7586E-01
      1.659  0.9287E-02  0.7659E-01
      1.737  0.6899E-02  0.7712E-01
      1.815  0.4607E-02  0.7748E-01
      1.893  0.4149E-02  0.7781E-01
      1.970  0.4855E-02  0.7818E-01
      2.048  0.5470E-02  0.7861E-01
      2.126  0.1079E-01  0.7945E-01
      2.204  0.1223E-01  0.8040E-01
      2.282  0.7630E-02  0.8100E-01
      2.360  0.5331E-02  0.8141E-01
      2.438  0.2700E-02  0.8162E-01
      2.516  0.5354E-03  0.8167E-01
      2.594  0.3541E-03  0.8169E-01
      2.671  0.2467E-02  0.8188E-01
      2.749  0.8779E-02  0.8257E-01
      2.827  0.1760E-01  0.8394E-01
      2.905  0.1704E-01  0.8527E-01
      2.983  0.6392E-02  0.8576E-01
      3.061  0.8409E-03  0.8583E-01
      3.139  0.4858E-04  0.8583E-01
      3.217  0.2545E-03  0.8585E-01
      3.295  0.1815E-02  0.8600E-01
      3.372  0.4284E-02  0.8633E-01
      3.450  0.3373E-02  0.8659E-01
      3.528  0.8834E-03  0.8666E-01
      3.606  0.7577E-04  0.8667E-01
      3.684  0.2084E-05  0.8667E-01
      3.762  0.1805E-07  0.8667E-01
      3.840  0.9606E-08  0.8667E-01
      3.918  0.1267E-05  0.8667E-01
      3.996  0.5271E-04  0.8667E-01
      4.073  0.7017E-03  0.8673E-01
      4.151  0.3051E-02  0.8696E-01
      4.229  0.4408E-02  0.8731E-01
      4.307  0.2126E-02  0.8747E-01
      4.385  0.3391E-03  0.8750E-01
      4.463  0.1759E-04  0.8750E-01
      4.541  0.4125E-05  0.8750E-01
      4.619  0.1175E-03  0.8751E-01
      4.697  0.1158E-02  0.8760E-01
      4.774  0.3748E-02  0.8789E-01
      4.852  0.4041E-02  0.8821E-01
      4.930  0.1453E-02  0.8832E-01
      5.008  0.1754E-03  0.8833E-01
      5.086  0.1411E-03  0.8834E-01
      5.164  0.1640E-02  0.8847E-01
      5.242  0.6538E-02  0.8898E-01
      5.320  0.8724E-02  0.8966E-01
      5.398  0.4593E-02  0.9002E-01
      5.475  0.3724E-02  0.9031E-01
      5.553  0.4472E-02  0.9066E-01
      5.631  0.2954E-02  0.9089E-01
      5.709  0.4931E-02  0.9127E-01
      5.787  0.1028E-01  0.9207E-01
      5.865  0.1075E-01  0.9291E-01
      5.943  0.4679E-02  0.9327E-01
      6.021  0.7379E-03  0.9333E-01
      6.099  0.3894E-04  0.9333E-01
      6.176  0.6593E-06  0.9333E-01
      6.254  0.3496E-08  0.9333E-01
      6.332  0.5716E-11  0.9333E-01
      6.410  0.2855E-14  0.9333E-01
      6.488  0.0000E+00  0.9333E-01
      6.566  0.0000E+00  0.9333E-01
      6.644  0.0000E+00  0.9333E-01
      6.722  0.0000E+00  0.9333E-01
      6.800  0.0000E+00  0.9333E-01
      6.877  0.0000E+00  0.9333E-01
