    3    3  300    1
  0.4467845E+02  0.3154256E-09  0.3154256E-09  0.1555589E-08  0.1000000E-15
  1.000000000000000E-004
  CAR 
 unknown system                          
     18      6     14
 
  0.1250000E+00  0.1250000E+00  0.0000000E+00  0.1250000E+00
    1      -15.013314   1.000000
    2      -14.129301   1.000000
    3       -6.550163   1.000000
    4       -5.133605   1.000000
    5       -4.674537   1.000000
    6       -4.148737   1.000000
    7       -3.470295   1.000000
    8       -2.426447   1.000000
    9       -2.072189   1.000000
   10        0.583030   0.000000
   11        1.023080   0.000000
   12        1.047413   0.000000
   13        2.322574   0.000000
   14        4.779786   0.000000
 
  0.3750000E+00  0.1250000E+00  0.0000000E+00  0.2500000E+00
    1      -13.771050   1.000000
    2      -13.545094   1.000000
    3       -7.042367   1.000000
    4       -6.428674   1.000000
    5       -5.473739   1.000000
    6       -4.707139   1.000000
    7       -3.402227   1.000000
    8       -3.326150   1.000000
    9       -1.961684   1.000000
   10        0.790132   0.000000
   11        1.326058   0.000000
   12        2.117775   0.000000
   13        2.849151   0.000000
   14        5.261804   0.000000
 
 -0.3750000E+00  0.1250000E+00  0.0000000E+00  0.2500000E+00
    1      -14.340832   1.000000
    2      -13.808977   1.000000
    3       -6.615692   1.000000
    4       -5.632092   1.000000
    5       -5.308669   1.000000
    6       -4.699428   1.000000
    7       -3.414976   1.000000
    8       -2.810569   1.000000
    9       -2.307365   1.000000
   10        0.504658   0.000000
   11        1.042954   0.000000
   12        1.511947   0.000000
   13        2.822841   0.000000
   14        5.815337   0.000000
 
 -0.1250000E+00  0.1250000E+00  0.0000000E+00  0.1250000E+00
    1      -15.427381   1.000000
    2      -14.328896   1.000000
    3       -6.912165   1.000000
    4       -4.550015   1.000000
    5       -4.101523   1.000000
    6       -3.822715   1.000000
    7       -3.286324   1.000000
    8       -2.563132   1.000000
    9       -1.724208   1.000000
   10        1.020943   0.000000
   11        1.132511   0.000000
   12        1.327001   0.000000
   13        1.722316   0.000000
   14        4.177458   0.000000
 
  0.3750000E+00  0.3750000E+00  0.0000000E+00  0.1250000E+00
    1      -13.533475   1.000000
    2      -13.404867   1.000000
    3       -6.870804   1.000000
    4       -6.506098   1.000000
    5       -5.435751   1.000000
    6       -4.740222   1.000000
    7       -4.550526   1.000000
    8       -3.582007   1.000000
    9       -1.623148   1.000000
   10        0.443813   0.000000
   11        1.609551   0.000000
   12        1.915216   0.000000
   13        3.355444   0.000000
   14        5.498504   0.000000
 
 -0.3750000E+00  0.3750000E+00  0.0000000E+00  0.1250000E+00
    1      -14.107997   1.000000
    2      -13.710232   1.000000
    3       -6.986607   1.000000
    4       -6.003401   1.000000
    5       -5.466853   1.000000
    6       -4.461814   1.000000
    7       -3.286112   1.000000
    8       -2.601311   1.000000
    9       -2.455531   1.000000
   10        0.751860   0.000000
   11        0.981942   0.000000
   12        2.174936   0.000000
   13        2.726560   0.000000
   14        5.728277   0.000000
