<?xml version="1.0" encoding="ISO-8859-1"?>
<modeling>
 <generator>
  <i name="program" type="string">vasp </i>
  <i name="version" type="string">6.2.1  </i>
  <i name="subversion" type="string">16May21 (build Oct 21 2023 21:03:18) complex                          parallel </i>
  <i name="platform" type="string">LinuxIFC </i>
  <i name="date" type="string">2024 05 24 </i>
  <i name="time" type="string">09:00:13 </i>
 </generator>
 <incar>
  <i type="int" name="ISTART">     0</i>
  <i type="string" name="PREC">accurate</i>
  <i type="int" name="IALGO">    48</i>
  <i type="string" name="ALGO">normal</i>
  <i type="int" name="NSIM">     4</i>
  <i type="int" name="IBRION">     2</i>
  <i name="EDIFF">      0.00000100</i>
  <i name="EDIFFG">     -0.00100000</i>
  <i type="int" name="NSW">   300</i>
  <i type="int" name="ISIF">     4</i>
  <i type="int" name="ISYM">     2</i>
  <i name="ENCUT">    500.00000000</i>
  <i name="POTIM">      0.10000000</i>
  <i type="logical" name="LREAL"> F  </i>
  <i type="logical" name="LPLANE"> T  </i>
  <i type="int" name="ISMEAR">     0</i>
  <i name="SIGMA">      0.10000000</i>
  <i name="PSTRESS">      0.00100000</i>
  <i type="logical" name="LWAVE"> F  </i>
  <i type="logical" name="LCHARG"> F  </i>
  <i type="string" name="GGA">PE</i>
  <i type="int" name="IVDW">    12</i>
 </incar>
 <primitive_cell>
  <structure name="primitive_cell" >
   <crystal>
    <varray name="basis" >
     <v>       3.15425597      -0.00000000       0.00000000 </v>
     <v>      -1.57712778       2.73166573       0.00000000 </v>
     <v>       0.00000000       0.00000000      15.55589164 </v>
    </varray>
    <i name="volume">    134.03536382 </i>
    <varray name="rec_basis" >
     <v>       0.31703198       0.18303848       0.00000000 </v>
     <v>       0.00000000       0.36607700       0.00000000 </v>
     <v>       0.00000000       0.00000000       0.06428433 </v>
    </varray>
   </crystal>
   <varray name="positions" >
    <v>       0.66666667       0.33333333       0.50000000 </v>
    <v>       0.33333333       0.66666667       0.39913791 </v>
    <v>       0.33333333       0.66666667       0.60086209 </v>
   </varray>
  </structure>
  <varray name="primitive_index" >
   <v type="int" >        1 </v>
   <v type="int" >        2 </v>
   <v type="int" >        3 </v>
  </varray>
 </primitive_cell>
 <kpoints>
  <generation param="Monkhorst-Pack">
   <v type="int" name="divisions">       4        4        1 </v>
   <v name="usershift">      0.00000000       0.00000000       0.00000000 </v>
   <v name="genvec1">      0.25000000      -0.00000000       0.00000000 </v>
   <v name="genvec2">     -0.00000000       0.25000000       0.00000000 </v>
   <v name="genvec3">      0.00000000       0.00000000       1.00000000 </v>
   <v name="shift">      0.50000000       0.50000000       0.00000000 </v>
  </generation>
  <varray name="kpointlist" >
   <v>       0.12500000       0.12500000       0.00000000 </v>
   <v>       0.37500000       0.12500000       0.00000000 </v>
   <v>      -0.37500000       0.12500000       0.00000000 </v>
   <v>      -0.12500000       0.12500000       0.00000000 </v>
   <v>       0.37500000       0.37500000       0.00000000 </v>
   <v>      -0.37500000       0.37500000       0.00000000 </v>
  </varray>
  <varray name="weights" >
   <v>       0.12500000 </v>
   <v>       0.25000000 </v>
   <v>       0.25000000 </v>
   <v>       0.12500000 </v>
   <v>       0.12500000 </v>
   <v>       0.12500000 </v>
  </varray>
 </kpoints>
 <parameters>
  <separator name="general" >
   <i type="string" name="SYSTEM">unknown system</i>
   <i type="logical" name="LCOMPAT"> F  </i>
  </separator>
  <separator name="electronic" >
   <i type="string" name="PREC">accura</i>
   <i name="ENMAX">    500.00000000</i>
   <i name="ENAUG">    345.27800000</i>
   <i name="EDIFF">      0.00000100</i>
   <i type="int" name="IALGO">    38</i>
   <i type="int" name="IWAVPR">    11</i>
   <i type="int" name="NBANDS">    14</i>
   <i type="int" name="NBANDSLOW">    -1</i>
   <i type="int" name="NBANDSHIGH">    -1</i>
   <i name="NELECT">     18.00000000</i>
   <i type="int" name="TURBO">     0</i>
   <i type="int" name="IRESTART">     0</i>
   <i type="int" name="NREBOOT">     0</i>
   <i type="int" name="NMIN">     0</i>
   <i name="EREF">      0.00000000</i>
   <separator name="electronic smearing" >
    <i type="int" name="ISMEAR">     0</i>
    <i name="SIGMA">      0.10000000</i>
    <i name="KSPACING">      0.50000000</i>
    <i type="logical" name="KGAMMA"> T  </i>
    <i type="logical" name="KBLOWUP"> T  </i>
   </separator>
   <separator name="electronic projectors" >
    <i type="logical" name="LREAL"> F  </i>
    <v name="ROPT">      0.00000000      0.00000000</v>
    <i type="int" name="LMAXPAW">  -100</i>
    <i type="int" name="LMAXMIX">     2</i>
    <i type="logical" name="NLSPLINE"> F  </i>
   </separator>
   <separator name="electronic startup" >
    <i type="int" name="ISTART">     0</i>
    <i type="int" name="ICHARG">     2</i>
    <i type="int" name="INIWAV">     1</i>
   </separator>
   <separator name="electronic spin" >
    <i type="int" name="ISPIN">     1</i>
    <i type="logical" name="LNONCOLLINEAR"> F  </i>
    <v name="MAGMOM">      1.00000000      1.00000000      1.00000000</v>
    <i name="NUPDOWN">     -1.00000000</i>
    <i type="logical" name="LSORBIT"> F  </i>
    <v name="SAXIS">      0.00000000      0.00000000      1.00000000</v>
    <i type="logical" name="LSPIRAL"> F  </i>
    <v name="QSPIRAL">      0.00000000      0.00000000      0.00000000</v>
    <i type="logical" name="LZEROZ"> F  </i>
   </separator>
   <separator name="electronic exchange-correlation" >
    <i type="logical" name="LASPH"> F  </i>
    <i type="logical" name="LMETAGGA"> F  </i>
   </separator>
   <separator name="electronic convergence" >
    <i type="int" name="NELM">    60</i>
    <i type="int" name="NELMDL">    -5</i>
    <i type="int" name="NELMIN">     2</i>
    <i name="ENINI">    500.00000000</i>
    <separator name="electronic convergence detail" >
     <i type="logical" name="LDIAG"> T  </i>
     <i type="logical" name="LSUBROT"> F  </i>
     <i name="WEIMIN">      0.00100000</i>
     <i name="EBREAK">      0.00000002</i>
     <i name="DEPER">      0.30000000</i>
     <i type="int" name="NRMM">     4</i>
     <i name="TIME">      0.40000000</i>
    </separator>
   </separator>
   <separator name="electronic mixer" >
    <i name="AMIX">      0.40000000</i>
    <i name="BMIX">      1.00000000</i>
    <i name="AMIN">      0.10000000</i>
    <i name="AMIX_MAG">      1.60000000</i>
    <i name="BMIX_MAG">      1.00000000</i>
    <separator name="electronic mixer details" >
     <i type="int" name="IMIX">     4</i>
     <i type="logical" name="MIXFIRST"> F  </i>
     <i type="int" name="MAXMIX">   -45</i>
     <i name="WC">    100.00000000</i>
     <i type="int" name="INIMIX">     1</i>
     <i type="int" name="MIXPRE">     1</i>
     <i type="int" name="MREMOVE">     5</i>
    </separator>
   </separator>
   <separator name="electronic dipolcorrection" >
    <i type="logical" name="LDIPOL"> F  </i>
    <i type="logical" name="LMONO"> F  </i>
    <i type="int" name="IDIPOL">     0</i>
    <i name="EPSILON">      1.00000000</i>
    <v name="DIPOL">   -100.00000000   -100.00000000   -100.00000000</v>
    <i name="EFIELD">      0.00000000</i>
   </separator>
  </separator>
  <separator name="grids" >
   <i type="int" name="NGX">    24</i>
   <i type="int" name="NGY">    24</i>
   <i type="int" name="NGZ">   120</i>
   <i type="int" name="NGXF">    48</i>
   <i type="int" name="NGYF">    48</i>
   <i type="int" name="NGZF">   240</i>
   <i type="logical" name="ADDGRID"> F  </i>
  </separator>
  <separator name="ionic" >
   <i type="int" name="NSW">   300</i>
   <i type="int" name="IBRION">     2</i>
   <i type="int" name="MDALGO">     0</i>
   <i type="int" name="ISIF">     4</i>
   <i name="PSTRESS">      0.00100000</i>
   <i name="EDIFFG">     -0.00100000</i>
   <i type="int" name="NFREE">     1</i>
   <i name="POTIM">      0.10000000</i>
   <i name="SMASS">     -3.00000000</i>
   <i name="SCALEE">      1.00000000</i>
  </separator>
  <separator name="ionic md" >
   <i name="TEBEG">      0.00010000</i>
   <i name="TEEND">      0.00010000</i>
   <i type="int" name="NBLOCK">     1</i>
   <i type="int" name="KBLOCK">   300</i>
   <i type="int" name="NPACO">   256</i>
   <i name="APACO">     16.00000000</i>
  </separator>
  <separator name="symmetry" >
   <i type="int" name="ISYM">     2</i>
   <i name="SYMPREC">      0.00001000</i>
  </separator>
  <separator name="dos" >
   <i type="int" name="LORBIT">     0</i>
   <v name="RWIGS">     -1.00000000     -1.00000000</v>
   <i type="int" name="NEDOS">   301</i>
   <i name="EMIN">     10.00000000</i>
   <i name="EMAX">    -10.00000000</i>
   <i name="EFERMI">      0.00000000</i>
  </separator>
  <separator name="writing" >
   <i type="int" name="NWRITE">     2</i>
   <i type="logical" name="LWAVE"> F  </i>
   <i type="logical" name="LDOWNSAMPLE"> F  </i>
   <i type="logical" name="LCHARG"> F  </i>
   <i type="logical" name="LPARD"> F  </i>
   <i type="logical" name="LVTOT"> F  </i>
   <i type="logical" name="LVHAR"> F  </i>
   <i type="logical" name="LELF"> F  </i>
   <i type="logical" name="LOPTICS"> F  </i>
   <v name="STM">      0.00000000      0.00000000      0.00000000      0.00000000      0.00000000      0.00000000      0.00000000</v>
  </separator>
  <separator name="performance" >
   <i type="int" name="NPAR">     2</i>
   <i type="int" name="NSIM">     4</i>
   <i type="int" name="NBLK">    -1</i>
   <i type="logical" name="LPLANE"> T  </i>
   <i type="logical" name="LSCALAPACK"> T  </i>
   <i type="logical" name="LSCAAWARE"> F  </i>
   <i type="logical" name="LSCALU"> F  </i>
   <i type="logical" name="LASYNC"> F  </i>
   <i type="logical" name="LORBITALREAL"> F  </i>
  </separator>
  <separator name="miscellaneous" >
   <i type="int" name="IDIOT">     3</i>
   <i type="int" name="PHON_NSTRUCT">    -1</i>
   <i type="logical" name="LMUSIC"> F  </i>
   <v name="POMASS">     95.94000000     32.06600000</v>
   <v name="DARWINR">      0.00000000      0.00000000</v>
   <v name="DARWINV">      1.00000000      1.00000000</v>
   <i type="logical" name="LCORR"> T  </i>
  </separator>
  <i type="logical" name="GGA_COMPAT"> T  </i>
  <i type="logical" name="LBERRY"> F  </i>
  <i type="int" name="ICORELEVEL">     0</i>
  <i type="logical" name="LDAU"> F  </i>
  <i type="int" name="I_CONSTRAINED_M">     0</i>
  <separator name="electronic exchange-correlation" >
   <i type="string" name="GGA">PE</i>
   <i type="int" name="VOSKOWN">     0</i>
   <i type="logical" name="LHFCALC"> F  </i>
   <i type="string" name="PRECFOCK"></i>
   <i type="logical" name="LSYMGRAD"> F  </i>
   <i type="logical" name="LHFONE"> F  </i>
   <i type="logical" name="LRHFCALC"> F  </i>
   <i type="logical" name="LTHOMAS"> F  </i>
   <i type="logical" name="LMODELHF"> F  </i>
   <i type="logical" name="LFOCKACE"> F  </i>
   <i name="ENCUT4O">     -1.00000000</i>
   <i type="int" name="EXXOEP">     0</i>
   <i type="int" name="FOURORBIT">     0</i>
   <i name="AEXX">      0.00000000</i>
   <i name="HFALPHA">      0.00000000</i>
   <i name="MCALPHA">      0.00000000</i>
   <i name="ALDAX">      1.00000000</i>
   <i name="AGGAX">      1.00000000</i>
   <i name="ALDAC">      1.00000000</i>
   <i name="AGGAC">      1.00000000</i>
   <i type="int" name="NKREDX">     1</i>
   <i type="int" name="NKREDY">     1</i>
   <i type="int" name="NKREDZ">     1</i>
   <i type="logical" name="SHIFTRED"> F  </i>
   <i type="logical" name="ODDONLY"> F  </i>
   <i type="logical" name="EVENONLY"> F  </i>
   <i type="int" name="LMAXFOCK">     0</i>
   <i type="int" name="NMAXFOCKAE">     0</i>
   <i type="logical" name="LFOCKAEDFT"> F  </i>
   <i name="HFSCREEN">      0.00000000</i>
   <i name="HFSCREENC">      0.00000000</i>
   <i type="int" name="NBANDSGWLOW">     0</i>
  </separator>
  <separator name="vdW DFT" >
   <i type="logical" name="LUSE_VDW"> F  </i>
   <i name="Zab_VDW">     -0.84910000</i>
   <i name="PARAM1">      0.12340000</i>
   <i name="PARAM2">      1.00000000</i>
   <i name="PARAM3">      0.00000000</i>
  </separator>
  <separator name="model GW" >
   <i type="int" name="MODEL_GW">     0</i>
   <i name="MODEL_EPS0">     26.80707276</i>
   <i name="MODEL_ALPHA">      1.00000000</i>
  </separator>
  <separator name="linear response parameters" >
   <i type="logical" name="LEPSILON"> F  </i>
   <i type="logical" name="LRPA"> F  </i>
   <i type="logical" name="LNABLA"> F  </i>
   <i type="logical" name="LVEL"> F  </i>
   <i type="int" name="KINTER">     0</i>
   <i name="CSHIFT">      0.10000000</i>
   <i name="OMEGAMAX">     -1.00000000</i>
   <i name="DEG_THRESHOLD">      0.00200000</i>
   <i name="RTIME">     -0.10000000</i>
   <i name="WPLASMAI">      0.00000000</i>
   <v name="DFIELD">      0.00000000      0.00000000      0.00000000</v>
   <v name="WPLASMA">      0.00000000      0.00000000      0.00000000      0.00000000      0.00000000      0.00000000      0.00000000      0.00000000      0.00000000</v>
  </separator>
  <separator name="orbital magnetization" >
   <i type="logical" name="NUCIND"> F  </i>
   <v name="MAGPOS">      0.00000000      0.00000000      0.00000000</v>
   <i type="logical" name="LNICSALL"> T  </i>
   <i type="logical" name="ORBITALMAG"> F  </i>
   <i type="logical" name="LMAGBLOCH"> F  </i>
   <i type="logical" name="LCHIMAG"> F  </i>
   <i type="logical" name="LGAUGE"> T  </i>
   <i type="int" name="MAGATOM">     0</i>
   <v name="MAGDIPOL">      0.00000000      0.00000000      0.00000000</v>
   <v name="AVECCONST">      0.00000000      0.00000000      0.00000000</v>
  </separator>
  <separator name="response functions" >
   <i type="logical" name="LFINITE_TEMPERATURE"> F  </i>
   <i type="logical" name="LADDER"> F  </i>
   <i type="logical" name="LRPAFORCE"> F  </i>
   <i type="logical" name="LFXC"> F  </i>
   <i type="logical" name="LHARTREE"> T  </i>
   <i type="int" name="IBSE">     0</i>
   <v type="int" name="KPOINT">    -1     0     0     0</v>
   <i type="logical" name="LTCTC"> F  </i>
   <i type="logical" name="LTCTE"> F  </i>
   <i type="logical" name="LTETE"> F  </i>
   <i type="logical" name="LTRIPLET"> F  </i>
   <i type="logical" name="LFXCEPS"> F  </i>
   <i type="logical" name="LFXHEG"> F  </i>
   <i type="int" name="NATURALO">     2</i>
   <i type="logical" name="LHOLEGF"> F  </i>
   <i type="logical" name="L2ORDER"> F  </i>
   <i type="logical" name="LDMP1"> F  </i>
   <i type="logical" name="LMP2LT"> F  </i>
   <i type="logical" name="LSMP2LT"> F  </i>
   <i type="logical" name="LGWLF"> F  </i>
   <i name="ENCUTGW">     -2.00000000</i>
   <i name="ENCUTGWSOFT">     -2.00000000</i>
   <i name="ENCUTLF">     -1.00000000</i>
   <i type="logical" name="LESF_SPLINES"> F  </i>
   <i type="int" name="LMAXMP2">    -1</i>
   <i name="SCISSOR">      0.00000000</i>
   <i type="int" name="NOMEGA">     0</i>
   <i type="int" name="NOMEGAR">     0</i>
   <i type="int" name="NBANDSGW">    -1</i>
   <i type="int" name="NBANDSO">    -1</i>
   <i type="int" name="NBANDSV">    -1</i>
   <i type="int" name="NELM">     1</i>
   <i type="int" name="NELMHF">     1</i>
   <i type="int" name="DIM">     3</i>
   <i type="int" name="IESPILON">     4</i>
   <i type="int" name="ANTIRES">     0</i>
   <i name="OMEGAMAX">    -30.00000000</i>
   <i name="OMEGAMIN">    -30.00000000</i>
   <i name="OMEGATL">   -200.00000000</i>
   <i type="int" name="OMEGAGRID">     0</i>
   <i name="CSHIFT">     -0.10000000</i>
   <i type="logical" name="LSELFENERGY"> F  </i>
   <i type="logical" name="LSPECTRAL"> F  </i>
   <i type="logical" name="LSPECTRALGW"> F  </i>
   <i type="logical" name="LSINGLES"> F  </i>
   <i type="logical" name="LFERMIGW"> F  </i>
   <i type="logical" name="ODDONLYGW"> F  </i>
   <i type="logical" name="EVENONLYGW"> F  </i>
   <i type="int" name="NKREDLFX">     1</i>
   <i type="int" name="NKREDLFY">     1</i>
   <i type="int" name="NKREDLFZ">     1</i>
   <i type="int" name="MAXMEM">  2800</i>
   <i type="int" name="TELESCOPE">     0</i>
   <i type="int" name="NTAUPAR">    -1</i>
   <i type="int" name="NOMEGAPAR">    -1</i>
   <i name="DAMP_NEWTON">      0.80000001</i>
   <i name="LAMBDA">      1.00000000</i>
  </separator>
  <separator name="External order field" >
   <i name="OFIELD_KAPPA">      0.00000000</i>
   <v name="OFIELD_K">      0.00000000      0.00000000      0.00000000</v>
   <i name="OFIELD_Q6_NEAR">      0.00000000</i>
   <i name="OFIELD_Q6_FAR">      0.00000000</i>
   <i name="OFIELD_A">      0.00000000</i>
  </separator>
 </parameters>
 <atominfo>
  <atoms>       3 </atoms>
  <types>       2 </types>
  <array name="atoms" >
   <dimension dim="1">ion</dimension>
   <field type="string">element</field>
   <field type="int">atomtype</field>
   <set>
    <rc><c>Mo</c><c>   1</c></rc>
    <rc><c>S </c><c>   2</c></rc>
    <rc><c>S </c><c>   2</c></rc>
   </set>
  </array>
  <array name="atomtypes" >
   <dimension dim="1">type</dimension>
   <field type="int">atomspertype</field>
   <field type="string">element</field>
   <field>mass</field>
   <field>valence</field>
   <field type="string">pseudopotential</field>
   <set>
    <rc><c>   1</c><c>Mo</c><c>     95.94000000</c><c>      6.00000000</c><c>  PAW_PBE Mo 08Apr2002                  </c></rc>
    <rc><c>   2</c><c>S </c><c>     32.06600000</c><c>      6.00000000</c><c>  PAW_PBE S 06Sep2000                   </c></rc>
   </set>
  </array>
 </atominfo>
 <structure name="initialpos" >
  <crystal>
   <varray name="basis" >
    <v>       3.15425597      -0.00000000       0.00000000 </v>
    <v>      -1.57712778       2.73166573       0.00000000 </v>
    <v>       0.00000000       0.00000000      15.55589164 </v>
   </varray>
   <i name="volume">    134.03536382 </i>
   <varray name="rec_basis" >
    <v>       0.31703198       0.18303848       0.00000000 </v>
    <v>       0.00000000       0.36607700       0.00000000 </v>
    <v>       0.00000000       0.00000000       0.06428433 </v>
   </varray>
  </crystal>
  <varray name="positions" >
   <v>       0.66666667       0.33333333       0.50000000 </v>
   <v>       0.33333333       0.66666667       0.39913791 </v>
   <v>       0.33333333       0.66666667       0.60086209 </v>
  </varray>
 </structure>
 <calculation>
  <scstep>
   <time name="dav">    0.15    0.15</time>
   <time name="total">    0.22    0.22</time>
   <energy>
    <i name="alphaZ">     22.12050503 </i>
    <i name="ewald">   1333.92838072 </i>
    <i name="hartreedc">  -2060.65503499 </i>
    <i name="XCdc">    -36.16621777 </i>
    <i name="pawpsdc">    700.55132206 </i>
    <i name="pawaedc">   -623.00449337 </i>
    <i name="eentropy">     -0.00562555 </i>
    <i name="bandstr">     13.85116840 </i>
    <i name="atom">    771.15796241 </i>
    <i name="e_fr_energy">    121.77796696 </i>
    <i name="e_wo_entrp">    121.78359251 </i>
    <i name="e_0_energy">    121.78077973 </i>
   </energy>
  </scstep>
  <scstep>
   <time name="dav">    0.23    0.23</time>
   <time name="total">    0.23    0.23</time>
   <energy>
    <i name="e_fr_energy">    -11.82503798 </i>
    <i name="e_wo_entrp">    -11.82503798 </i>
    <i name="e_0_energy">    -11.82503798 </i>
   </energy>
  </scstep>
  <scstep>
   <time name="dav">    0.26    0.26</time>
   <time name="total">    0.26    0.26</time>
   <energy>
    <i name="e_fr_energy">    -23.08111880 </i>
    <i name="e_wo_entrp">    -23.08111880 </i>
    <i name="e_0_energy">    -23.08111880 </i>
   </energy>
  </scstep>
  <scstep>
   <time name="dav">    0.24    0.24</time>
   <time name="total">    0.24    0.24</time>
   <energy>
    <i name="e_fr_energy">    -23.31914641 </i>
    <i name="e_wo_entrp">    -23.31914641 </i>
    <i name="e_0_energy">    -23.31914641 </i>
   </energy>
  </scstep>
  <scstep>
   <time name="dav">    0.29    0.29</time>
   <time name="total">    0.32    0.32</time>
   <energy>
    <i name="e_fr_energy">    -23.32686398 </i>
    <i name="e_wo_entrp">    -23.32686398 </i>
    <i name="e_0_energy">    -23.32686398 </i>
   </energy>
  </scstep>
  <scstep>
   <time name="dav">    0.26    0.26</time>
   <time name="total">    0.38    0.38</time>
   <energy>
    <i name="e_fr_energy">    -22.18526424 </i>
    <i name="e_wo_entrp">    -22.18526424 </i>
    <i name="e_0_energy">    -22.18526424 </i>
   </energy>
  </scstep>
  <scstep>
   <time name="dav">    0.24    0.24</time>
   <time name="total">    0.36    0.36</time>
   <energy>
    <i name="e_fr_energy">    -22.01169302 </i>
    <i name="e_wo_entrp">    -22.01169302 </i>
    <i name="e_0_energy">    -22.01169302 </i>
   </energy>
  </scstep>
  <scstep>
   <time name="dav">    0.26    0.26</time>
   <time name="total">    0.38    0.38</time>
   <energy>
    <i name="e_fr_energy">    -21.77318069 </i>
    <i name="e_wo_entrp">    -21.77318069 </i>
    <i name="e_0_energy">    -21.77318069 </i>
   </energy>
  </scstep>
  <scstep>
   <time name="dav">    0.26    0.26</time>
   <time name="total">    0.38    0.39</time>
   <energy>
    <i name="e_fr_energy">    -21.77352514 </i>
    <i name="e_wo_entrp">    -21.77352514 </i>
    <i name="e_0_energy">    -21.77352514 </i>
   </energy>
  </scstep>
  <scstep>
   <time name="dav">    0.27    0.27</time>
   <time name="total">    0.43    0.43</time>
   <energy>
    <i name="e_fr_energy">    -21.76967908 </i>
    <i name="e_wo_entrp">    -21.76967908 </i>
    <i name="e_0_energy">    -21.76967908 </i>
   </energy>
  </scstep>
  <scstep>
   <time name="dav">    0.25    0.25</time>
   <time name="total">    0.41    0.41</time>
   <energy>
    <i name="e_fr_energy">    -21.76936848 </i>
    <i name="e_wo_entrp">    -21.76936848 </i>
    <i name="e_0_energy">    -21.76936848 </i>
   </energy>
  </scstep>
  <scstep>
   <time name="dav">    0.24    0.24</time>
   <time name="total">    0.39    0.39</time>
   <energy>
    <i name="e_fr_energy">    -21.76914721 </i>
    <i name="e_wo_entrp">    -21.76914721 </i>
    <i name="e_0_energy">    -21.76914721 </i>
   </energy>
  </scstep>
  <scstep>
   <time name="dav">    0.23    0.23</time>
   <time name="total">    0.37    0.37</time>
   <energy>
    <i name="e_fr_energy">    -21.76887561 </i>
    <i name="e_wo_entrp">    -21.76887561 </i>
    <i name="e_0_energy">    -21.76887561 </i>
   </energy>
  </scstep>
  <scstep>
   <time name="dav">    0.24    0.24</time>
   <time name="total">    0.39    0.39</time>
   <energy>
    <i name="e_fr_energy">    -21.76897489 </i>
    <i name="e_wo_entrp">    -21.76897489 </i>
    <i name="e_0_energy">    -21.76897489 </i>
   </energy>
  </scstep>
  <scstep>
   <time name="dav">    0.23    0.23</time>
   <time name="total">    0.38    0.38</time>
   <energy>
    <i name="e_fr_energy">    -21.76904980 </i>
    <i name="e_wo_entrp">    -21.76904980 </i>
    <i name="e_0_energy">    -21.76904980 </i>
   </energy>
  </scstep>
  <scstep>
   <time name="dav">    0.24    0.24</time>
   <time name="total">    0.38    0.38</time>
   <energy>
    <i name="e_fr_energy">    -21.76913173 </i>
    <i name="e_wo_entrp">    -21.76913173 </i>
    <i name="e_0_energy">    -21.76913173 </i>
   </energy>
  </scstep>
  <scstep>
   <time name="dav">    0.23    0.23</time>
   <time name="total">    0.37    0.37</time>
   <energy>
    <i name="e_fr_energy">    -21.76922623 </i>
    <i name="e_wo_entrp">    -21.76922623 </i>
    <i name="e_0_energy">    -21.76922623 </i>
   </energy>
  </scstep>
  <scstep>
   <time name="dav">    0.20    0.20</time>
   <time name="total">    0.39    0.39</time>
   <energy>
    <i name="e_fr_energy">    -21.76923555 </i>
    <i name="e_wo_entrp">    -21.76923555 </i>
    <i name="e_0_energy">    -21.76923555 </i>
   </energy>
  </scstep>
  <scstep>
   <time name="dav">    0.20    0.20</time>
   <time name="total">    0.32    0.32</time>
   <energy>
    <i name="e_fr_energy">    -21.76925048 </i>
    <i name="e_wo_entrp">    -21.76925048 </i>
    <i name="e_0_energy">    -21.76925048 </i>
   </energy>
  </scstep>
  <scstep>
   <time name="dav">    0.21    0.21</time>
   <time name="total">    0.34    0.34</time>
   <energy>
    <i name="e_fr_energy">    -21.76925153 </i>
    <i name="e_wo_entrp">    -21.76925153 </i>
    <i name="e_0_energy">    -21.76925153 </i>
   </energy>
  </scstep>
  <scstep>
   <time name="dav">    0.18    0.18</time>
   <time name="total">    0.28    0.28</time>
   <energy>
    <i name="alphaZ">     22.12050503 </i>
    <i name="ewald">   1333.92838072 </i>
    <i name="hartreedc">  -2071.95094943 </i>
    <i name="XCdc">    -35.03888252 </i>
    <i name="pawpsdc">   1636.32427442 </i>
    <i name="pawaedc">  -1560.59509282 </i>
    <i name="eentropy">     -0.00000000 </i>
    <i name="bandstr">   -117.71544963 </i>
    <i name="atom">    771.15796241 </i>
    <i name="e_fr_energy">    -21.76925181 </i>
    <i name="e_wo_entrp">    -21.76925181 </i>
    <i name="e_0_energy">    -21.76925181 </i>
   </energy>
  </scstep>
  <structure>
   <crystal>
    <varray name="basis" >
     <v>       3.15425597      -0.00000000       0.00000000 </v>
     <v>      -1.57712778       2.73166573       0.00000000 </v>
     <v>       0.00000000       0.00000000      15.55589164 </v>
    </varray>
    <i name="volume">    134.03536382 </i>
    <varray name="rec_basis" >
     <v>       0.31703198       0.18303848       0.00000000 </v>
     <v>       0.00000000       0.36607700       0.00000000 </v>
     <v>       0.00000000       0.00000000       0.06428433 </v>
    </varray>
   </crystal>
   <varray name="positions" >
    <v>       0.66666667       0.33333333       0.50000000 </v>
    <v>       0.33333333       0.66666667       0.39913791 </v>
    <v>       0.33333333       0.66666667       0.60086209 </v>
   </varray>
  </structure>
  <varray name="forces" >
   <v>       0.00000000      -0.00000000       0.00000000 </v>
   <v>      -0.00000000       0.00000000       0.00392183 </v>
   <v>       0.00000000       0.00000000      -0.00392183 </v>
  </varray>
  <varray name="stress" >
   <v>      -0.59677105      -0.00000004      -0.00000000 </v>
   <v>      -0.00000004      -0.59677102      -0.00000000 </v>
   <v>      -0.00000000       0.00000000      -0.66368066 </v>
  </varray>
  <energy>
   <i name="e_fr_energy">    -22.72973100 </i>
   <i name="e_wo_entrp">    -22.72973100 </i>
   <i name="e_0_energy">    -22.72973100 </i>
  </energy>
  <time name="totalsc">    7.81    7.82</time>
 </calculation>
 <calculation>
  <scstep>
   <time name="dav">    0.24    0.24</time>
   <time name="total">    0.38    0.38</time>
   <energy>
    <i name="alphaZ">     22.12050503 </i>
    <i name="ewald">   1333.91374554 </i>
    <i name="hartreedc">  -2071.93836190 </i>
    <i name="XCdc">    -35.03871295 </i>
    <i name="pawpsdc">   1636.34499781 </i>
    <i name="pawaedc">  -1560.61586250 </i>
    <i name="eentropy">     -0.00000000 </i>
    <i name="bandstr">   -117.71352569 </i>
    <i name="atom">    771.15796241 </i>
    <i name="e_fr_energy">    -21.76925225 </i>
    <i name="e_wo_entrp">    -21.76925225 </i>
    <i name="e_0_energy">    -21.76925225 </i>
   </energy>
  </scstep>
  <scstep>
   <time name="dav">    0.19    0.19</time>
   <time name="total">    0.28    0.28</time>
   <energy>
    <i name="alphaZ">     22.12050503 </i>
    <i name="ewald">   1333.91374554 </i>
    <i name="hartreedc">  -2071.93687688 </i>
    <i name="XCdc">    -35.03868024 </i>
    <i name="pawpsdc">   1636.38899143 </i>
    <i name="pawaedc">  -1560.65990876 </i>
    <i name="eentropy">     -0.00000000 </i>
    <i name="bandstr">   -117.71499082 </i>
    <i name="atom">    771.15796241 </i>
    <i name="e_fr_energy">    -21.76925228 </i>
    <i name="e_wo_entrp">    -21.76925228 </i>
    <i name="e_0_energy">    -21.76925228 </i>
   </energy>
  </scstep>
  <structure>
   <crystal>
    <varray name="basis" >
     <v>       3.15427490      -0.00000000      -0.00000000 </v>
     <v>      -1.57713724       2.73168213      -0.00000000 </v>
     <v>      -0.00000000       0.00000000      15.55570494 </v>
    </varray>
    <i name="volume">    134.03536382 </i>
    <varray name="rec_basis" >
     <v>       0.31703007       0.18303738       0.00000000 </v>
     <v>       0.00000000       0.36607480       0.00000000 </v>
     <v>       0.00000000       0.00000000       0.06428510 </v>
    </varray>
   </crystal>
   <varray name="positions" >
    <v>       0.66666667       0.33333333       0.50000000 </v>
    <v>       0.33333333       0.66666667       0.39914034 </v>
    <v>       0.33333333       0.66666667       0.60085966 </v>
   </varray>
  </structure>
  <varray name="forces" >
   <v>      -0.00000000      -0.00000000      -0.00000000 </v>
   <v>       0.00000000       0.00000000       0.00261776 </v>
   <v>       0.00000000       0.00000000      -0.00261776 </v>
  </varray>
  <varray name="stress" >
   <v>      -0.58265939      -0.00000004       0.00000000 </v>
   <v>      -0.00000004      -0.58265936       0.00000000 </v>
   <v>       0.00000000       0.00000000      -0.63872531 </v>
  </varray>
  <energy>
   <i name="e_fr_energy">    -22.72973147 </i>
   <i name="e_wo_entrp">    -22.72973147 </i>
   <i name="e_0_energy">    -22.72973147 </i>
  </energy>
  <time name="totalsc">    1.25    1.25</time>
 </calculation>
 <calculation>
  <scstep>
   <time name="dav">    0.24    0.24</time>
   <time name="total">    0.37    0.37</time>
   <energy>
    <i name="alphaZ">     22.12050503 </i>
    <i name="ewald">   1333.87976589 </i>
    <i name="hartreedc">  -2071.90818795 </i>
    <i name="XCdc">    -35.03830593 </i>
    <i name="pawpsdc">   1636.39993867 </i>
    <i name="pawaedc">  -1560.67089114 </i>
    <i name="eentropy">     -0.00000000 </i>
    <i name="bandstr">   -117.71003968 </i>
    <i name="atom">    771.15796241 </i>
    <i name="e_fr_energy">    -21.76925270 </i>
    <i name="e_wo_entrp">    -21.76925270 </i>
    <i name="e_0_energy">    -21.76925270 </i>
   </energy>
  </scstep>
  <scstep>
   <time name="dav">    0.18    0.18</time>
   <time name="total">    0.28    0.28</time>
   <energy>
    <i name="alphaZ">     22.12050503 </i>
    <i name="ewald">   1333.87976589 </i>
    <i name="hartreedc">  -2071.90440123 </i>
    <i name="XCdc">    -35.03821272 </i>
    <i name="pawpsdc">   1636.50974610 </i>
    <i name="pawaedc">  -1560.78082996 </i>
    <i name="eentropy">     -0.00000000 </i>
    <i name="bandstr">   -117.71378826 </i>
    <i name="atom">    771.15796241 </i>
    <i name="e_fr_energy">    -21.76925273 </i>
    <i name="e_wo_entrp">    -21.76925273 </i>
    <i name="e_0_energy">    -21.76925273 </i>
   </energy>
  </scstep>
  <structure>
   <crystal>
    <varray name="basis" >
     <v>       3.15431884      -0.00000000      -0.00000000 </v>
     <v>      -1.57715922       2.73172018      -0.00000000 </v>
     <v>      -0.00000000       0.00000000      15.55527150 </v>
    </varray>
    <i name="volume">    134.03536382 </i>
    <varray name="rec_basis" >
     <v>       0.31702566       0.18303483       0.00000000 </v>
     <v>       0.00000000       0.36606970       0.00000000 </v>
     <v>       0.00000000       0.00000000       0.06428689 </v>
    </varray>
   </crystal>
   <varray name="positions" >
    <v>       0.66666667       0.33333333       0.50000000 </v>
    <v>       0.33333333       0.66666667       0.39914599 </v>
    <v>       0.33333333       0.66666667       0.60085401 </v>
   </varray>
  </structure>
  <varray name="forces" >
   <v>       0.00000000      -0.00000000      -0.00000000 </v>
   <v>      -0.00000000       0.00000000       0.00024394 </v>
   <v>      -0.00000000       0.00000000      -0.00024394 </v>
  </varray>
  <varray name="stress" >
   <v>      -0.55783555      -0.00000004       0.00000000 </v>
   <v>      -0.00000004      -0.55783552       0.00000000 </v>
   <v>       0.00000000      -0.00000000      -0.57391388 </v>
  </varray>
  <energy>
   <i name="e_fr_energy">    -22.72973196 </i>
   <i name="e_wo_entrp">    -22.72973196 </i>
   <i name="e_0_energy">    -22.72973196 </i>
  </energy>
  <time name="totalsc">    1.23    1.23</time>
  <eigenvalues>
   <array>
    <dimension dim="1">band</dimension>
    <dimension dim="2">kpoint</dimension>
    <dimension dim="3">spin</dimension>
    <field>eigene</field>
    <field>occ</field>
    <set>
     <set comment="spin 1">
      <set comment="kpoint 1">
       <r>  -15.0133    1.0000 </r>
       <r>  -14.1293    1.0000 </r>
       <r>   -6.5502    1.0000 </r>
       <r>   -5.1336    1.0000 </r>
       <r>   -4.6745    1.0000 </r>
       <r>   -4.1487    1.0000 </r>
       <r>   -3.4703    1.0000 </r>
       <r>   -2.4264    1.0000 </r>
       <r>   -2.0722    1.0000 </r>
       <r>    0.5830    0.0000 </r>
       <r>    1.0231    0.0000 </r>
       <r>    1.0474    0.0000 </r>
       <r>    2.3226    0.0000 </r>
       <r>    4.7798    0.0000 </r>
      </set>
      <set comment="kpoint 2">
       <r>  -13.7710    1.0000 </r>
       <r>  -13.5451    1.0000 </r>
       <r>   -7.0424    1.0000 </r>
       <r>   -6.4287    1.0000 </r>
       <r>   -5.4737    1.0000 </r>
       <r>   -4.7071    1.0000 </r>
       <r>   -3.4022    1.0000 </r>
       <r>   -3.3262    1.0000 </r>
       <r>   -1.9617    1.0000 </r>
       <r>    0.7901    0.0000 </r>
       <r>    1.3261    0.0000 </r>
       <r>    2.1178    0.0000 </r>
       <r>    2.8492    0.0000 </r>
       <r>    5.2618    0.0000 </r>
      </set>
      <set comment="kpoint 3">
       <r>  -14.3408    1.0000 </r>
       <r>  -13.8090    1.0000 </r>
       <r>   -6.6157    1.0000 </r>
       <r>   -5.6321    1.0000 </r>
       <r>   -5.3087    1.0000 </r>
       <r>   -4.6994    1.0000 </r>
       <r>   -3.4150    1.0000 </r>
       <r>   -2.8106    1.0000 </r>
       <r>   -2.3074    1.0000 </r>
       <r>    0.5047    0.0000 </r>
       <r>    1.0430    0.0000 </r>
       <r>    1.5119    0.0000 </r>
       <r>    2.8228    0.0000 </r>
       <r>    5.8153    0.0000 </r>
      </set>
      <set comment="kpoint 4">
       <r>  -15.4274    1.0000 </r>
       <r>  -14.3289    1.0000 </r>
       <r>   -6.9122    1.0000 </r>
       <r>   -4.5500    1.0000 </r>
       <r>   -4.1015    1.0000 </r>
       <r>   -3.8227    1.0000 </r>
       <r>   -3.2863    1.0000 </r>
       <r>   -2.5631    1.0000 </r>
       <r>   -1.7242    1.0000 </r>
       <r>    1.0209    0.0000 </r>
       <r>    1.1325    0.0000 </r>
       <r>    1.3270    0.0000 </r>
       <r>    1.7223    0.0000 </r>
       <r>    4.1775    0.0000 </r>
      </set>
      <set comment="kpoint 5">
       <r>  -13.5335    1.0000 </r>
       <r>  -13.4049    1.0000 </r>
       <r>   -6.8708    1.0000 </r>
       <r>   -6.5061    1.0000 </r>
       <r>   -5.4358    1.0000 </r>
       <r>   -4.7402    1.0000 </r>
       <r>   -4.5505    1.0000 </r>
       <r>   -3.5820    1.0000 </r>
       <r>   -1.6231    1.0000 </r>
       <r>    0.4438    0.0000 </r>
       <r>    1.6096    0.0000 </r>
       <r>    1.9152    0.0000 </r>
       <r>    3.3554    0.0000 </r>
       <r>    5.4985    0.0000 </r>
      </set>
      <set comment="kpoint 6">
       <r>  -14.1080    1.0000 </r>
       <r>  -13.7102    1.0000 </r>
       <r>   -6.9866    1.0000 </r>
       <r>   -6.0034    1.0000 </r>
       <r>   -5.4669    1.0000 </r>
       <r>   -4.4618    1.0000 </r>
       <r>   -3.2861    1.0000 </r>
       <r>   -2.6013    1.0000 </r>
       <r>   -2.4555    1.0000 </r>
       <r>    0.7519    0.0000 </r>
       <r>    0.9819    0.0000 </r>
       <r>    2.1749    0.0000 </r>
       <r>    2.7266    0.0000 </r>
       <r>    5.7283    0.0000 </r>
      </set>
     </set>
    </set>
   </array>
  </eigenvalues>
  <separator name="orbital magnetization" >
   <v name="MAGDIPOLOUT">      0.00000000      0.00000000      0.00000000</v>
  </separator>
  <dos>
   <i name="efermi">     -1.14397662 </i>
   <total>
    <array>
     <dimension dim="1">gridpoints</dimension>
     <dimension dim="2">spin</dimension>
     <field>energy</field>
     <field>total</field>
     <field>integrated</field>
     <set>
      <set comment="spin 1">
       <r>   -16.4895     0.0000     0.0000 </r>
       <r>   -16.4116     0.0000     0.0000 </r>
       <r>   -16.3337     0.0000     0.0000 </r>
       <r>   -16.2558     0.0000     0.0000 </r>
       <r>   -16.1780     0.0000     0.0000 </r>
       <r>   -16.1001     0.0000     0.0000 </r>
       <r>   -16.0222     0.0000     0.0000 </r>
       <r>   -15.9443     0.0000     0.0000 </r>
       <r>   -15.8664     0.0000     0.0000 </r>
       <r>   -15.7885     0.0000     0.0000 </r>
       <r>   -15.7106     0.0001     0.0000 </r>
       <r>   -15.6327     0.0058     0.0005 </r>
       <r>   -15.5548     0.1088     0.0089 </r>
       <r>   -15.4769     0.6610     0.0604 </r>
       <r>   -15.3991     1.3287     0.1639 </r>
       <r>   -15.3212     0.8918     0.2334 </r>
       <r>   -15.2433     0.2006     0.2490 </r>
       <r>   -15.1654     0.0632     0.2539 </r>
       <r>   -15.0875     0.4218     0.2868 </r>
       <r>   -15.0096     1.1999     0.3802 </r>
       <r>   -14.9317     1.1389     0.4689 </r>
       <r>   -14.8538     0.3602     0.4970 </r>
       <r>   -14.7759     0.0374     0.4999 </r>
       <r>   -14.6980     0.0013     0.5000 </r>
       <r>   -14.6202     0.0003     0.5000 </r>
       <r>   -14.5423     0.0179     0.5014 </r>
       <r>   -14.4644     0.3294     0.5271 </r>
       <r>   -14.3865     1.9838     0.6816 </r>
       <r>   -14.3086     3.9993     0.9931 </r>
       <r>   -14.2307     3.0263     1.2288 </r>
       <r>   -14.1528     2.2575     1.4046 </r>
       <r>   -14.0749     2.6970     1.6147 </r>
       <r>   -13.9970     1.4808     1.7301 </r>
       <r>   -13.9191     0.7431     1.7879 </r>
       <r>   -13.8413     2.7247     2.0002 </r>
       <r>   -13.7634     5.7637     2.4491 </r>
       <r>   -13.6855     5.1242     2.8482 </r>
       <r>   -13.6076     3.3214     3.1069 </r>
       <r>   -13.5297     4.1683     3.4316 </r>
       <r>   -13.4518     3.9022     3.7355 </r>
       <r>   -13.3739     2.2454     3.9104 </r>
       <r>   -13.2960     0.9488     3.9843 </r>
       <r>   -13.2181     0.1879     3.9990 </r>
       <r>   -13.1402     0.0130     4.0000 </r>
       <r>   -13.0624     0.0003     4.0000 </r>
       <r>   -12.9845     0.0000     4.0000 </r>
       <r>   -12.9066     0.0000     4.0000 </r>
       <r>   -12.8287     0.0000     4.0000 </r>
       <r>   -12.7508     0.0000     4.0000 </r>
       <r>   -12.6729     0.0000     4.0000 </r>
       <r>   -12.5950     0.0000     4.0000 </r>
       <r>   -12.5171     0.0000     4.0000 </r>
       <r>   -12.4392     0.0000     4.0000 </r>
       <r>   -12.3613     0.0000     4.0000 </r>
       <r>   -12.2835     0.0000     4.0000 </r>
       <r>   -12.2056     0.0000     4.0000 </r>
       <r>   -12.1277     0.0000     4.0000 </r>
       <r>   -12.0498     0.0000     4.0000 </r>
       <r>   -11.9719     0.0000     4.0000 </r>
       <r>   -11.8940     0.0000     4.0000 </r>
       <r>   -11.8161     0.0000     4.0000 </r>
       <r>   -11.7382     0.0000     4.0000 </r>
       <r>   -11.6603     0.0000     4.0000 </r>
       <r>   -11.5824     0.0000     4.0000 </r>
       <r>   -11.5046     0.0000     4.0000 </r>
       <r>   -11.4267     0.0000     4.0000 </r>
       <r>   -11.3488     0.0000     4.0000 </r>
       <r>   -11.2709     0.0000     4.0000 </r>
       <r>   -11.1930     0.0000     4.0000 </r>
       <r>   -11.1151     0.0000     4.0000 </r>
       <r>   -11.0372     0.0000     4.0000 </r>
       <r>   -10.9593     0.0000     4.0000 </r>
       <r>   -10.8814     0.0000     4.0000 </r>
       <r>   -10.8035     0.0000     4.0000 </r>
       <r>   -10.7257     0.0000     4.0000 </r>
       <r>   -10.6478     0.0000     4.0000 </r>
       <r>   -10.5699     0.0000     4.0000 </r>
       <r>   -10.4920     0.0000     4.0000 </r>
       <r>   -10.4141     0.0000     4.0000 </r>
       <r>   -10.3362     0.0000     4.0000 </r>
       <r>   -10.2583     0.0000     4.0000 </r>
       <r>   -10.1804     0.0000     4.0000 </r>
       <r>   -10.1025     0.0000     4.0000 </r>
       <r>   -10.0246     0.0000     4.0000 </r>
       <r>    -9.9468     0.0000     4.0000 </r>
       <r>    -9.8689     0.0000     4.0000 </r>
       <r>    -9.7910     0.0000     4.0000 </r>
       <r>    -9.7131     0.0000     4.0000 </r>
       <r>    -9.6352     0.0000     4.0000 </r>
       <r>    -9.5573     0.0000     4.0000 </r>
       <r>    -9.4794     0.0000     4.0000 </r>
       <r>    -9.4015     0.0000     4.0000 </r>
       <r>    -9.3236     0.0000     4.0000 </r>
       <r>    -9.2458     0.0000     4.0000 </r>
       <r>    -9.1679     0.0000     4.0000 </r>
       <r>    -9.0900     0.0000     4.0000 </r>
       <r>    -9.0121     0.0000     4.0000 </r>
       <r>    -8.9342     0.0000     4.0000 </r>
       <r>    -8.8563     0.0000     4.0000 </r>
       <r>    -8.7784     0.0000     4.0000 </r>
       <r>    -8.7005     0.0000     4.0000 </r>
       <r>    -8.6226     0.0000     4.0000 </r>
       <r>    -8.5447     0.0000     4.0000 </r>
       <r>    -8.4669     0.0000     4.0000 </r>
       <r>    -8.3890     0.0000     4.0000 </r>
       <r>    -8.3111     0.0000     4.0000 </r>
       <r>    -8.2332     0.0000     4.0000 </r>
       <r>    -8.1553     0.0000     4.0000 </r>
       <r>    -8.0774     0.0000     4.0000 </r>
       <r>    -7.9995     0.0000     4.0000 </r>
       <r>    -7.9216     0.0000     4.0000 </r>
       <r>    -7.8437     0.0000     4.0000 </r>
       <r>    -7.7658     0.0000     4.0000 </r>
       <r>    -7.6880     0.0000     4.0000 </r>
       <r>    -7.6101     0.0000     4.0000 </r>
       <r>    -7.5322     0.0000     4.0000 </r>
       <r>    -7.4543     0.0000     4.0000 </r>
       <r>    -7.3764     0.0000     4.0000 </r>
       <r>    -7.2985     0.0009     4.0001 </r>
       <r>    -7.2206     0.0382     4.0030 </r>
       <r>    -7.1427     0.5068     4.0425 </r>
       <r>    -7.0648     2.3540     4.2259 </r>
       <r>    -6.9869     4.3551     4.5651 </r>
       <r>    -6.9091     4.3515     4.9040 </r>
       <r>    -6.8312     3.0682     5.1430 </r>
       <r>    -6.7533     1.3507     5.2482 </r>
       <r>    -6.6754     1.4429     5.3606 </r>
       <r>    -6.5975     3.6184     5.6424 </r>
       <r>    -6.5196     4.9622     6.0289 </r>
       <r>    -6.4417     4.7511     6.3990 </r>
       <r>    -6.3638     3.2682     6.6536 </r>
       <r>    -6.2859     1.0952     6.7389 </r>
       <r>    -6.2080     0.1431     6.7500 </r>
       <r>    -6.1302     0.1169     6.7591 </r>
       <r>    -6.0523     0.6685     6.8112 </r>
       <r>    -5.9744     1.3304     6.9148 </r>
       <r>    -5.8965     0.8847     6.9837 </r>
       <r>    -5.8186     0.2213     7.0010 </r>
       <r>    -5.7407     0.3877     7.0312 </r>
       <r>    -5.6628     1.7661     7.1687 </r>
       <r>    -5.5849     3.2137     7.4190 </r>
       <r>    -5.5070     4.2731     7.7519 </r>
       <r>    -5.4291     5.7419     8.1991 </r>
       <r>    -5.3513     4.8185     8.5744 </r>
       <r>    -5.2734     3.4994     8.8470 </r>
       <r>    -5.1955     2.2241     9.0202 </r>
       <r>    -5.1176     1.6107     9.1457 </r>
       <r>    -5.0397     1.0433     9.2270 </r>
       <r>    -4.9618     0.2762     9.2485 </r>
       <r>    -4.8839     0.1606     9.2610 </r>
       <r>    -4.8060     1.4687     9.3754 </r>
       <r>    -4.7281     5.6295     9.8139 </r>
       <r>    -4.6502     8.1235    10.4466 </r>
       <r>    -4.5724     5.8271    10.9005 </r>
       <r>    -4.4945     4.1027    11.2200 </r>
       <r>    -4.4166     2.5675    11.4200 </r>
       <r>    -4.3387     0.9000    11.4901 </r>
       <r>    -4.2608     0.3401    11.5166 </r>
       <r>    -4.1829     1.1970    11.6098 </r>
       <r>    -4.1050     2.4806    11.8030 </r>
       <r>    -4.0271     1.9279    11.9532 </r>
       <r>    -3.9492     0.6610    12.0047 </r>
       <r>    -3.8713     0.7269    12.0613 </r>
       <r>    -3.7935     1.3373    12.1655 </r>
       <r>    -3.7156     0.9726    12.2412 </r>
       <r>    -3.6377     0.8271    12.3057 </r>
       <r>    -3.5598     1.8326    12.4484 </r>
       <r>    -3.4819     3.8516    12.7484 </r>
       <r>    -3.4040     7.3700    13.3225 </r>
       <r>    -3.3261     8.8964    14.0154 </r>
       <r>    -3.2482     6.5103    14.5225 </r>
       <r>    -3.1703     2.5026    14.7174 </r>
       <r>    -3.0924     0.3959    14.7482 </r>
       <r>    -3.0146     0.0347    14.7509 </r>
       <r>    -2.9367     0.2271    14.7686 </r>
       <r>    -2.8588     1.3514    14.8739 </r>
       <r>    -2.7809     2.6846    15.0830 </r>
       <r>    -2.7030     2.0520    15.2428 </r>
       <r>    -2.6251     1.8917    15.3902 </r>
       <r>    -2.5472     3.0427    15.6272 </r>
       <r>    -2.4693     3.4820    15.8984 </r>
       <r>    -2.3914     3.6567    16.1832 </r>
       <r>    -2.3135     3.5953    16.4632 </r>
       <r>    -2.2357     2.7044    16.6739 </r>
       <r>    -2.1578     1.2474    16.7710 </r>
       <r>    -2.0799     1.4953    16.8875 </r>
       <r>    -2.0020     2.7549    17.1021 </r>
       <r>    -1.9241     3.1483    17.3473 </r>
       <r>    -1.8462     1.7674    17.4850 </r>
       <r>    -1.7683     1.0922    17.5700 </r>
       <r>    -1.6904     1.8423    17.7135 </r>
       <r>    -1.6125     2.0810    17.8756 </r>
       <r>    -1.5346     1.2468    17.9727 </r>
       <r>    -1.4568     0.3198    17.9977 </r>
       <r>    -1.3789     0.0292    17.9999 </r>
       <r>    -1.3010     0.0009    18.0000 </r>
       <r>    -1.2231     0.0000    18.0000 </r>
       <r>    -1.1452     0.0000    18.0000 </r>
       <r>    -1.0673     0.0000    18.0000 </r>
       <r>    -0.9894     0.0000    18.0000 </r>
       <r>    -0.9115     0.0000    18.0000 </r>
       <r>    -0.8336     0.0000    18.0000 </r>
       <r>    -0.7557     0.0000    18.0000 </r>
       <r>    -0.6779     0.0000    18.0000 </r>
       <r>    -0.6000     0.0000    18.0000 </r>
       <r>    -0.5221     0.0000    18.0000 </r>
       <r>    -0.4442     0.0000    18.0000 </r>
       <r>    -0.3663     0.0000    18.0000 </r>
       <r>    -0.2884     0.0000    18.0000 </r>
       <r>    -0.2105     0.0000    18.0000 </r>
       <r>    -0.1326     0.0000    18.0000 </r>
       <r>    -0.0547     0.0000    18.0000 </r>
       <r>     0.0232     0.0000    18.0000 </r>
       <r>     0.1010     0.0000    18.0000 </r>
       <r>     0.1789     0.0003    18.0000 </r>
       <r>     0.2568     0.0143    18.0011 </r>
       <r>     0.3347     0.2354    18.0195 </r>
       <r>     0.4126     1.4525    18.1326 </r>
       <r>     0.4905     3.6966    18.4205 </r>
       <r>     0.5684     4.2873    18.7545 </r>
       <r>     0.6463     2.7567    18.9692 </r>
       <r>     0.7242     2.5582    19.1684 </r>
       <r>     0.8021     3.9431    19.4756 </r>
       <r>     0.8799     3.2354    19.7276 </r>
       <r>     0.9578     3.6557    20.0123 </r>
       <r>     1.0357     7.4433    20.5921 </r>
       <r>     1.1136     7.4193    21.1700 </r>
       <r>     1.1915     3.6215    21.4520 </r>
       <r>     1.2694     2.5480    21.6505 </r>
       <r>     1.3473     4.0621    21.9669 </r>
       <r>     1.4252     3.5730    22.2452 </r>
       <r>     1.5031     3.1055    22.4871 </r>
       <r>     1.5810     3.4915    22.7590 </r>
       <r>     1.6588     2.7861    22.9761 </r>
       <r>     1.7367     2.0698    23.1373 </r>
       <r>     1.8146     1.3821    23.2449 </r>
       <r>     1.8925     1.2447    23.3419 </r>
       <r>     1.9704     1.4565    23.4553 </r>
       <r>     2.0483     1.6411    23.5831 </r>
       <r>     2.1262     3.2375    23.8353 </r>
       <r>     2.2041     3.6692    24.1211 </r>
       <r>     2.2820     2.2890    24.2994 </r>
       <r>     2.3599     1.5994    24.4240 </r>
       <r>     2.4377     0.8099    24.4871 </r>
       <r>     2.5156     0.1606    24.4996 </r>
       <r>     2.5935     0.1062    24.5078 </r>
       <r>     2.6714     0.7400    24.5655 </r>
       <r>     2.7493     2.6336    24.7706 </r>
       <r>     2.8272     5.2814    25.1820 </r>
       <r>     2.9051     5.1116    25.5801 </r>
       <r>     2.9830     1.9175    25.7295 </r>
       <r>     3.0609     0.2523    25.7491 </r>
       <r>     3.1388     0.0146    25.7503 </r>
       <r>     3.2166     0.0763    25.7562 </r>
       <r>     3.2945     0.5446    25.7986 </r>
       <r>     3.3724     1.2851    25.8987 </r>
       <r>     3.4503     1.0119    25.9775 </r>
       <r>     3.5282     0.2650    25.9982 </r>
       <r>     3.6061     0.0227    26.0000 </r>
       <r>     3.6840     0.0006    26.0000 </r>
       <r>     3.7619     0.0000    26.0000 </r>
       <r>     3.8398     0.0000    26.0000 </r>
       <r>     3.9177     0.0004    26.0000 </r>
       <r>     3.9955     0.0158    26.0013 </r>
       <r>     4.0734     0.2105    26.0177 </r>
       <r>     4.1513     0.9154    26.0890 </r>
       <r>     4.2292     1.3225    26.1920 </r>
       <r>     4.3071     0.6379    26.2417 </r>
       <r>     4.3850     0.1017    26.2496 </r>
       <r>     4.4629     0.0053    26.2500 </r>
       <r>     4.5408     0.0012    26.2501 </r>
       <r>     4.6187     0.0353    26.2528 </r>
       <r>     4.6966     0.3474    26.2799 </r>
       <r>     4.7744     1.1244    26.3675 </r>
       <r>     4.8523     1.2122    26.4619 </r>
       <r>     4.9302     0.4358    26.4958 </r>
       <r>     5.0081     0.0526    26.4999 </r>
       <r>     5.0860     0.0423    26.5032 </r>
       <r>     5.1639     0.4919    26.5415 </r>
       <r>     5.2418     1.9613    26.6943 </r>
       <r>     5.3197     2.6171    26.8981 </r>
       <r>     5.3976     1.3778    27.0055 </r>
       <r>     5.4755     1.1171    27.0925 </r>
       <r>     5.5533     1.3415    27.1970 </r>
       <r>     5.6312     0.8862    27.2660 </r>
       <r>     5.7091     1.4794    27.3812 </r>
       <r>     5.7870     3.0837    27.6214 </r>
       <r>     5.8649     3.2237    27.8725 </r>
       <r>     5.9428     1.4036    27.9818 </r>
       <r>     6.0207     0.2214    27.9991 </r>
       <r>     6.0986     0.0117    28.0000 </r>
       <r>     6.1765     0.0002    28.0000 </r>
       <r>     6.2544     0.0000    28.0000 </r>
       <r>     6.3322     0.0000    28.0000 </r>
       <r>     6.4101     0.0000    28.0000 </r>
       <r>     6.4880     0.0000    28.0000 </r>
       <r>     6.5659     0.0000    28.0000 </r>
       <r>     6.6438     0.0000    28.0000 </r>
       <r>     6.7217     0.0000    28.0000 </r>
       <r>     6.7996     0.0000    28.0000 </r>
       <r>     6.8775     0.0000    28.0000 </r>
      </set>
     </set>
    </array>
   </total>
  </dos>
 </calculation>
 <structure name="finalpos" >
  <crystal>
   <varray name="basis" >
    <v>       3.15431884      -0.00000000      -0.00000000 </v>
    <v>      -1.57715922       2.73172018      -0.00000000 </v>
    <v>      -0.00000000       0.00000000      15.55527150 </v>
   </varray>
   <i name="volume">    134.03536382 </i>
   <varray name="rec_basis" >
    <v>       0.31702566       0.18303483       0.00000000 </v>
    <v>       0.00000000       0.36606970       0.00000000 </v>
    <v>       0.00000000       0.00000000       0.06428689 </v>
   </varray>
  </crystal>
  <varray name="positions" >
   <v>       0.66666667       0.33333333       0.50000000 </v>
   <v>       0.33333333       0.66666667       0.39914599 </v>
   <v>       0.33333333       0.66666667       0.60085401 </v>
  </varray>
 </structure>
</modeling>
