unknown system                          
           1
     3.154256   -0.000000    0.000000
    -1.577128    2.731666    0.000000
     0.000000    0.000000   15.555892
   Mo   S 
     1     2
unknown system                          
           1
     3.154256   -0.000000    0.000000
    -1.577128    2.731666    0.000000
     0.000000    0.000000   15.555892
   Mo   S 
     1     2
Direct configuration=     1
   0.66666667  0.33333333  0.50000000
   0.33333333  0.66666667  0.39913791
   0.33333333  0.66666667  0.60086209
unknown system                          
           1
     3.154275   -0.000000   -0.000000
    -1.577137    2.731682   -0.000000
    -0.000000    0.000000   15.555705
   Mo   S 
     1     2
Direct configuration=     2
   0.66666667  0.33333333  0.50000000
   0.33333333  0.66666667  0.39914034
   0.33333333  0.66666667  0.60085966
unknown system                          
           1
     3.154319   -0.000000   -0.000000
    -1.577159    2.731720   -0.000000
    -0.000000    0.000000   15.555271
   Mo   S 
     1     2
Direct configuration=     3
   0.66666667  0.33333333  0.50000000
   0.33333333  0.66666667  0.39914599
   0.33333333  0.66666667  0.60085401
