   8   8   0   0
  0.5921022E+01  0.3074780E-09  0.4215344E-09  0.3703811E-09  0.5000000E-15
  1.000000000000000E-004
  CAR 
 unknown system                          
     20.81425472    -13.20708849  301     10.12320430      1.00000000
    -13.207  0.0000E+00  0.0000E+00
    -13.094  0.0000E+00  0.0000E+00
    -12.980  0.0000E+00  0.0000E+00
    -12.867  0.0000E+00  0.0000E+00
    -12.753  0.0000E+00  0.0000E+00
    -12.640  0.0000E+00  0.0000E+00
    -12.527  0.0000E+00  0.0000E+00
    -12.413  0.0000E+00  0.0000E+00
    -12.300  0.0000E+00  0.0000E+00
    -12.186  0.1204E-15  0.1366E-16
    -12.073  0.6780E-11  0.7689E-12
    -11.960  0.3177E-07  0.3604E-08
    -11.846  0.1316E-04  0.1496E-05
    -11.733  0.5511E-03  0.6399E-04
    -11.619  0.3036E-02  0.4083E-03
    -11.506  0.3070E-02  0.7564E-03
    -11.393  0.6552E-03  0.8307E-03
    -11.279  0.2315E-04  0.8333E-03
    -11.166  0.2336E-05  0.8336E-03
    -11.052  0.1488E-03  0.8505E-03
    -10.939  0.1233E-02  0.9903E-03
    -10.826  0.2031E-02  0.1221E-02
    -10.712  0.2671E-02  0.1524E-02
    -10.599  0.3811E-02  0.1956E-02
    -10.485  0.2146E-02  0.2199E-02
    -10.372  0.1954E-02  0.2421E-02
    -10.259  0.1409E-02  0.2581E-02
    -10.145  0.3840E-02  0.3016E-02
    -10.032  0.4596E-02  0.3537E-02
     -9.918  0.1728E-02  0.3733E-02
     -9.805  0.1518E-03  0.3750E-02
     -9.692  0.2230E-03  0.3776E-02
     -9.578  0.1252E-02  0.3918E-02
     -9.465  0.2706E-02  0.4225E-02
     -9.351  0.4806E-02  0.4770E-02
     -9.238  0.5341E-02  0.5375E-02
     -9.125  0.3496E-02  0.5772E-02
     -9.011  0.3852E-02  0.6209E-02
     -8.898  0.4197E-02  0.6685E-02
     -8.784  0.3401E-02  0.7070E-02
     -8.671  0.3262E-02  0.7440E-02
     -8.558  0.3130E-02  0.7795E-02
     -8.444  0.1416E-02  0.7956E-02
     -8.331  0.3060E-02  0.8303E-02
     -8.217  0.4759E-02  0.8843E-02
     -8.104  0.2511E-02  0.9127E-02
     -7.990  0.1206E-02  0.9264E-02
     -7.877  0.2171E-02  0.9510E-02
     -7.764  0.3419E-02  0.9898E-02
     -7.650  0.3990E-02  0.1035E-01
     -7.537  0.4305E-02  0.1084E-01
     -7.423  0.4784E-02  0.1138E-01
     -7.310  0.6955E-02  0.1217E-01
     -7.197  0.7731E-02  0.1305E-01
     -7.083  0.6821E-02  0.1382E-01
     -6.970  0.5844E-02  0.1448E-01
     -6.856  0.4709E-02  0.1502E-01
     -6.743  0.3961E-02  0.1547E-01
     -6.630  0.4248E-02  0.1595E-01
     -6.516  0.4739E-02  0.1649E-01
     -6.403  0.5291E-02  0.1709E-01
     -6.289  0.3490E-02  0.1748E-01
     -6.176  0.1857E-02  0.1769E-01
     -6.063  0.3118E-02  0.1805E-01
     -5.949  0.4929E-02  0.1860E-01
     -5.836  0.4625E-02  0.1913E-01
     -5.722  0.4688E-02  0.1966E-01
     -5.609  0.6677E-02  0.2042E-01
     -5.496  0.6866E-02  0.2120E-01
     -5.382  0.6526E-02  0.2194E-01
     -5.269  0.7503E-02  0.2279E-01
     -5.155  0.3118E-02  0.2314E-01
     -5.042  0.1771E-02  0.2334E-01
     -4.929  0.1646E-02  0.2353E-01
     -4.815  0.1874E-02  0.2374E-01
     -4.702  0.4053E-02  0.2420E-01
     -4.588  0.3394E-02  0.2459E-01
     -4.475  0.2943E-02  0.2492E-01
     -4.362  0.3028E-02  0.2526E-01
     -4.248  0.2616E-02  0.2556E-01
     -4.135  0.2730E-02  0.2587E-01
     -4.021  0.3897E-02  0.2631E-01
     -3.908  0.6195E-02  0.2701E-01
     -3.795  0.6993E-02  0.2781E-01
     -3.681  0.2913E-02  0.2814E-01
     -3.568  0.3510E-02  0.2853E-01
     -3.454  0.4254E-02  0.2902E-01
     -3.341  0.2575E-02  0.2931E-01
     -3.227  0.5732E-02  0.2996E-01
     -3.114  0.6372E-02  0.3068E-01
     -3.001  0.4519E-02  0.3119E-01
     -2.887  0.5196E-02  0.3178E-01
     -2.774  0.4397E-02  0.3228E-01
     -2.660  0.4623E-02  0.3281E-01
     -2.547  0.4548E-02  0.3332E-01
     -2.434  0.5288E-02  0.3392E-01
     -2.320  0.4047E-02  0.3438E-01
     -2.207  0.4137E-02  0.3485E-01
     -2.093  0.4691E-02  0.3538E-01
     -1.980  0.4585E-02  0.3590E-01
     -1.867  0.3938E-02  0.3635E-01
     -1.753  0.3600E-02  0.3676E-01
     -1.640  0.5715E-02  0.3740E-01
     -1.526  0.4575E-02  0.3792E-01
     -1.413  0.6018E-02  0.3861E-01
     -1.300  0.5722E-02  0.3925E-01
     -1.186  0.2284E-02  0.3951E-01
     -1.073  0.4350E-02  0.4001E-01
     -0.959  0.6818E-02  0.4078E-01
     -0.846  0.6281E-02  0.4149E-01
     -0.733  0.3933E-02  0.4194E-01
     -0.619  0.5166E-02  0.4252E-01
     -0.506  0.6493E-02  0.4326E-01
     -0.392  0.8036E-02  0.4417E-01
     -0.279  0.9925E-02  0.4530E-01
     -0.166  0.7785E-02  0.4618E-01
     -0.052  0.5789E-02  0.4684E-01
      0.061  0.6856E-02  0.4761E-01
      0.175  0.5019E-02  0.4818E-01
      0.288  0.3281E-02  0.4856E-01
      0.401  0.2124E-02  0.4880E-01
      0.515  0.4528E-02  0.4931E-01
      0.628  0.7357E-02  0.5014E-01
      0.742  0.6361E-02  0.5087E-01
      0.855  0.6455E-02  0.5160E-01
      0.968  0.6055E-02  0.5228E-01
      1.082  0.7531E-02  0.5314E-01
      1.195  0.7642E-02  0.5400E-01
      1.309  0.1019E-01  0.5516E-01
      1.422  0.9800E-02  0.5627E-01
      1.535  0.7877E-02  0.5716E-01
      1.649  0.7103E-02  0.5797E-01
      1.762  0.6364E-02  0.5869E-01
      1.876  0.7937E-02  0.5959E-01
      1.989  0.9339E-02  0.6065E-01
      2.103  0.7141E-02  0.6146E-01
      2.216  0.8148E-02  0.6239E-01
      2.329  0.1094E-01  0.6363E-01
      2.443  0.1129E-01  0.6491E-01
      2.556  0.1121E-01  0.6618E-01
      2.670  0.1316E-01  0.6767E-01
      2.783  0.1215E-01  0.6905E-01
      2.896  0.8192E-02  0.6998E-01
      3.010  0.7330E-02  0.7081E-01
      3.123  0.9146E-02  0.7185E-01
      3.237  0.7103E-02  0.7265E-01
      3.350  0.8918E-02  0.7366E-01
      3.463  0.1068E-01  0.7487E-01
      3.577  0.9699E-02  0.7597E-01
      3.690  0.7728E-02  0.7685E-01
      3.804  0.7974E-02  0.7775E-01
      3.917  0.7900E-02  0.7865E-01
      4.030  0.8991E-02  0.7967E-01
      4.144  0.8996E-02  0.8069E-01
      4.257  0.8915E-02  0.8170E-01
      4.371  0.7350E-02  0.8253E-01
      4.484  0.4772E-02  0.8308E-01
      4.597  0.6145E-02  0.8377E-01
      4.711  0.7979E-02  0.8468E-01
      4.824  0.4827E-02  0.8522E-01
      4.938  0.5555E-02  0.8585E-01
      5.051  0.6328E-02  0.8657E-01
      5.164  0.3757E-02  0.8700E-01
      5.278  0.4315E-02  0.8749E-01
      5.391  0.6049E-02  0.8817E-01
      5.505  0.6209E-02  0.8888E-01
      5.618  0.8207E-02  0.8981E-01
      5.731  0.7491E-02  0.9066E-01
      5.845  0.6556E-02  0.9140E-01
      5.958  0.6054E-02  0.9209E-01
      6.072  0.3845E-02  0.9252E-01
      6.185  0.4908E-02  0.9308E-01
      6.298  0.5278E-02  0.9368E-01
      6.412  0.3850E-02  0.9412E-01
      6.525  0.4528E-02  0.9463E-01
      6.639  0.4003E-02  0.9508E-01
      6.752  0.2350E-02  0.9535E-01
      6.866  0.2511E-02  0.9563E-01
      6.979  0.3391E-02  0.9602E-01
      7.092  0.4788E-02  0.9656E-01
      7.206  0.4371E-02  0.9706E-01
      7.319  0.1831E-02  0.9727E-01
      7.433  0.2545E-03  0.9729E-01
      7.546  0.5188E-03  0.9735E-01
      7.659  0.1409E-02  0.9751E-01
      7.773  0.2295E-02  0.9777E-01
      7.886  0.3686E-02  0.9819E-01
      8.000  0.4553E-02  0.9871E-01
      8.113  0.4186E-02  0.9918E-01
      8.226  0.3008E-02  0.9952E-01
      8.340  0.2616E-02  0.9982E-01
      8.453  0.3309E-02  0.1002E+00
      8.567  0.3486E-02  0.1006E+00
      8.680  0.4820E-02  0.1011E+00
      8.793  0.6580E-02  0.1019E+00
      8.907  0.4103E-02  0.1023E+00
      9.020  0.4903E-02  0.1029E+00
      9.134  0.5147E-02  0.1035E+00
      9.247  0.4424E-02  0.1040E+00
      9.360  0.5795E-02  0.1046E+00
      9.474  0.3955E-02  0.1051E+00
      9.587  0.1067E-02  0.1052E+00
      9.701  0.1255E-02  0.1054E+00
      9.814  0.2269E-02  0.1056E+00
      9.927  0.3628E-02  0.1060E+00
     10.041  0.4222E-02  0.1065E+00
     10.154  0.1819E-02  0.1067E+00
     10.268  0.2540E-02  0.1070E+00
     10.381  0.4490E-02  0.1075E+00
     10.494  0.4485E-02  0.1080E+00
     10.608  0.4154E-02  0.1085E+00
     10.721  0.5870E-02  0.1092E+00
     10.835  0.5195E-02  0.1097E+00
     10.948  0.3365E-02  0.1101E+00
     11.061  0.1324E-02  0.1103E+00
     11.175  0.1791E-02  0.1105E+00
     11.288  0.3180E-02  0.1108E+00
     11.402  0.4694E-02  0.1114E+00
     11.515  0.2978E-02  0.1117E+00
     11.628  0.2538E-02  0.1120E+00
     11.742  0.3428E-02  0.1124E+00
     11.855  0.4067E-02  0.1128E+00
     11.969  0.2278E-02  0.1131E+00
     12.082  0.3724E-02  0.1135E+00
     12.196  0.6823E-02  0.1143E+00
     12.309  0.6506E-02  0.1150E+00
     12.422  0.4084E-02  0.1155E+00
     12.536  0.1061E-02  0.1156E+00
     12.649  0.8666E-03  0.1157E+00
     12.763  0.2032E-02  0.1160E+00
     12.876  0.7581E-03  0.1160E+00
     12.989  0.4760E-03  0.1161E+00
     13.103  0.2737E-02  0.1164E+00
     13.216  0.4112E-02  0.1169E+00
     13.330  0.4420E-02  0.1174E+00
     13.443  0.5334E-02  0.1180E+00
     13.556  0.6766E-02  0.1187E+00
     13.670  0.7101E-02  0.1195E+00
     13.783  0.5779E-02  0.1202E+00
     13.897  0.5065E-02  0.1208E+00
     14.010  0.6631E-02  0.1215E+00
     14.123  0.6420E-02  0.1223E+00
     14.237  0.4300E-02  0.1227E+00
     14.350  0.4469E-02  0.1233E+00
     14.464  0.5666E-02  0.1239E+00
     14.577  0.6048E-02  0.1246E+00
     14.690  0.5937E-02  0.1253E+00
     14.804  0.4850E-02  0.1258E+00
     14.917  0.5647E-02  0.1264E+00
     15.031  0.5737E-02  0.1271E+00
     15.144  0.3682E-02  0.1275E+00
     15.257  0.5707E-02  0.1282E+00
     15.371  0.5468E-02  0.1288E+00
     15.484  0.3864E-02  0.1292E+00
     15.598  0.6352E-02  0.1299E+00
     15.711  0.9959E-02  0.1311E+00
     15.824  0.9491E-02  0.1321E+00
     15.938  0.9077E-02  0.1332E+00
     16.051  0.9508E-02  0.1343E+00
     16.165  0.7112E-02  0.1351E+00
     16.278  0.5599E-02  0.1357E+00
     16.391  0.5643E-02  0.1363E+00
     16.505  0.7544E-02  0.1372E+00
     16.618  0.1038E-01  0.1384E+00
     16.732  0.9142E-02  0.1394E+00
     16.845  0.5234E-02  0.1400E+00
     16.959  0.5240E-02  0.1406E+00
     17.072  0.4542E-02  0.1411E+00
     17.185  0.6587E-02  0.1419E+00
     17.299  0.5610E-02  0.1425E+00
     17.412  0.5356E-02  0.1431E+00
     17.526  0.4033E-02  0.1436E+00
     17.639  0.5196E-02  0.1441E+00
     17.752  0.5830E-02  0.1448E+00
     17.866  0.3484E-02  0.1452E+00
     17.979  0.2361E-02  0.1455E+00
     18.093  0.1686E-02  0.1457E+00
     18.206  0.1567E-02  0.1458E+00
     18.319  0.1391E-02  0.1460E+00
     18.433  0.6248E-03  0.1461E+00
     18.546  0.1019E-02  0.1462E+00
     18.660  0.5765E-03  0.1462E+00
     18.773  0.5034E-04  0.1463E+00
     18.886  0.3336E-03  0.1463E+00
     19.000  0.1058E-02  0.1464E+00
     19.113  0.4420E-03  0.1465E+00
     19.227  0.5063E-03  0.1465E+00
     19.340  0.1041E-02  0.1466E+00
     19.453  0.2744E-03  0.1467E+00
     19.567  0.7952E-05  0.1467E+00
     19.680  0.2164E-07  0.1467E+00
     19.794  0.5032E-11  0.1467E+00
     19.907  0.9545E-16  0.1467E+00
     20.020  0.0000E+00  0.1467E+00
     20.134  0.0000E+00  0.1467E+00
     20.247  0.0000E+00  0.1467E+00
     20.361  0.0000E+00  0.1467E+00
     20.474  0.0000E+00  0.1467E+00
     20.587  0.0000E+00  0.1467E+00
     20.701  0.0000E+00  0.1467E+00
     20.814  0.0000E+00  0.1467E+00
