    8    8  300    1
  0.5921022E+01  0.3074780E-09  0.4215344E-09  0.3703811E-09  0.5000000E-15
  1.000000000000000E-004
  CAR 
 unknown system                          
     32     32     22
 
  0.1250000E+00  0.1250000E+00  0.1250000E+00  0.3125000E-01
    1      -11.554889   1.000000
    2       -7.342848   1.000000
    3       -5.777014   1.000000
    4       -3.892310   1.000000
    5       -2.891077   1.000000
    6       -1.973069   1.000000
    7       -1.740242   1.000000
    8        0.845300   1.000000
    9        1.470484   1.000000
   10        3.429736   1.000000
   11        3.899711   1.000000
   12        4.895662   1.000000
   13        5.664379   1.000000
   14        5.901925   1.000000
   15        6.482030   1.000000
   16        8.474391   1.000000
   17        9.080283   1.000000
   18       10.677519   0.000000
   19       14.678117   0.000000
   20       15.553121   0.000000
   21       16.161527   0.000000
   22       16.654050   0.000000
 
  0.3750000E+00  0.1250000E+00  0.1250000E+00  0.3125000E-01
    1      -10.029424   1.000000
    2       -7.391649   1.000000
    3       -6.484310   1.000000
    4       -4.525208   1.000000
    5       -3.220345   1.000000
    6       -1.376001   1.000000
    7       -0.625562   1.000000
    8       -0.001837   1.000000
    9        1.859479   1.000000
   10        2.094785   1.000000
   11        2.253164   1.000000
   12        3.067166   1.000000
   13        4.281776   1.000000
   14        4.984654   1.000000
   15        5.561755   1.000000
   16        6.069197   1.000000
   17       13.147985   0.000000
   18       14.214786   0.000000
   19       14.407819   0.000000
   20       16.650352   0.000000
   21       17.910582   0.000000
   22       18.516012   0.000000
 
 -0.3750000E+00  0.1250000E+00  0.1250000E+00  0.3125000E-01
    1      -10.160608   1.000000
    2       -7.227941   1.000000
    3       -5.678926   1.000000
    4       -5.629153   1.000000
    5       -2.968201   1.000000
    6       -0.924894   1.000000
    7       -0.420037   1.000000
    8        0.754622   1.000000
    9        0.871985   1.000000
   10        1.724025   1.000000
   11        2.123742   1.000000
   12        2.333795   1.000000
   13        4.015136   1.000000
   14        4.052205   1.000000
   15        6.836870   1.000000
   16        7.092221   1.000000
   17       12.242878   0.000000
   18       15.538296   0.000000
   19       15.884812   0.000000
   20       16.477906   0.000000
   21       16.649371   0.000000
   22       17.153763   0.000000
 
 -0.1250000E+00  0.1250000E+00  0.1250000E+00  0.3125000E-01
    1      -11.601697   1.000000
    2       -7.114870   1.000000
    3       -5.941558   1.000000
    4       -3.944157   1.000000
    5       -3.288107   1.000000
    6       -1.479500   1.000000
    7       -1.069911   1.000000
    8        0.769955   1.000000
    9        1.758335   1.000000
   10        2.759874   1.000000
   11        3.337894   1.000000
   12        3.816770   1.000000
   13        4.750623   1.000000
   14        5.500153   1.000000
   15        8.838653   1.000000
   16        8.984697   1.000000
   17        9.066716   1.000000
   18       12.726510   0.000000
   19       13.557493   0.000000
   20       14.495917   0.000000
   21       15.306943   0.000000
   22       16.540251   0.000000
 
  0.1250000E+00  0.3750000E+00  0.1250000E+00  0.3125000E-01
    1      -10.631777   1.000000
    2       -9.464590   1.000000
    3       -5.554256   1.000000
    4       -3.923267   1.000000
    5       -2.186249   1.000000
    6       -1.560722   1.000000
    7        0.585588   1.000000
    8        0.628012   1.000000
    9        1.120744   1.000000
   10        2.318676   1.000000
   11        3.257530   1.000000
   12        4.223511   1.000000
   13        4.608798   1.000000
   14        5.550856   1.000000
   15        6.497865   1.000000
   16        9.255083   1.000000
   17       10.653078   0.000000
   18       10.707647   0.000000
   19       13.891344   0.000000
   20       16.301250   0.000000
   21       17.589008   0.000000
   22       17.590166   0.000000
 
  0.3750000E+00  0.3750000E+00  0.1250000E+00  0.3125000E-01
    1       -9.061588   1.000000
    2       -8.304064   1.000000
    3       -6.806336   1.000000
    4       -5.080472   1.000000
    5       -3.845533   1.000000
    6       -1.046888   1.000000
    7        0.519242   1.000000
    8        0.920521   1.000000
    9        1.357185   1.000000
   10        1.993389   1.000000
   11        2.660042   1.000000
   12        2.828675   1.000000
   13        3.463826   1.000000
   14        3.768764   1.000000
   15        7.726008   1.000000
   16        8.139974   1.000000
   17       12.092579   0.000000
   18       12.103289   0.000000
   19       14.657864   0.000000
   20       16.606865   0.000000
   21       16.870314   0.000000
   22       19.267830   0.000000
 
 -0.3750000E+00  0.3750000E+00  0.1250000E+00  0.3125000E-01
    1       -9.386866   1.000000
    2       -7.751658   1.000000
    3       -6.573126   1.000000
    4       -6.223778   1.000000
    5       -1.596156   1.000000
    6       -0.889411   1.000000
    7       -0.269260   1.000000
    8        0.565825   1.000000
    9        0.740194   1.000000
   10        0.970838   1.000000
   11        1.185954   1.000000
   12        3.520229   1.000000
   13        3.752450   1.000000
   14        5.949385   1.000000
   15        6.738364   1.000000
   16        8.767416   1.000000
   17       10.400183   0.000045
   18       14.276033   0.000000
   19       15.202378   0.000000
   20       15.706855   0.000000
   21       17.192706   0.000000
   22       17.667668   0.000000
 
 -0.1250000E+00  0.3750000E+00  0.1250000E+00  0.3125000E-01
    1      -10.738135   1.000000
    2       -9.313704   1.000000
    3       -5.957704   1.000000
    4       -3.166657   1.000000
    5       -2.081207   1.000000
    6       -0.707702   1.000000
    7       -0.365965   1.000000
    8       -0.124952   1.000000
    9        1.887488   1.000000
   10        2.426315   1.000000
   11        3.046302   1.000000
   12        3.081111   1.000000
   13        3.872762   1.000000
   14        5.519079   1.000000
   15        8.650658   1.000000
   16        8.687386   1.000000
   17        9.186441   1.000000
   18       13.612933   0.000000
   19       14.500206   0.000000
   20       16.002915   0.000000
   21       16.650943   0.000000
   22       17.138864   0.000000
 
  0.1250000E+00 -0.3750000E+00  0.1250000E+00  0.3125000E-01
    1      -10.951205   1.000000
    2       -8.927606   1.000000
    3       -4.673298   1.000000
    4       -4.286573   1.000000
    5       -3.152176   1.000000
    6       -2.531459   1.000000
    7       -0.893843   1.000000
    8        1.524986   1.000000
    9        2.396989   1.000000
   10        3.595634   1.000000
   11        3.630086   1.000000
   12        3.989350   1.000000
   13        5.380299   1.000000
   14        5.675750   1.000000
   15        6.173392   1.000000
   16        8.187869   1.000000
   17        9.964369   0.987656
   18       12.157859   0.000000
   19       13.530789   0.000000
   20       15.249589   0.000000
   21       16.321477   0.000000
   22       16.446288   0.000000
 
  0.3750000E+00 -0.3750000E+00  0.1250000E+00  0.3125000E-01
    1       -9.608946   1.000000
    2       -7.351684   1.000000
    3       -6.448307   1.000000
    4       -5.652403   1.000000
    5       -2.956767   1.000000
    6       -2.685807   1.000000
    7       -1.420379   1.000000
    8        1.902679   1.000000
    9        2.133429   1.000000
   10        2.157223   1.000000
   11        2.573808   1.000000
   12        3.262108   1.000000
   13        4.238931   1.000000
   14        5.054920   1.000000
   15        5.884233   1.000000
   16        9.263742   1.000000
   17       10.781426   0.000000
   18       13.315003   0.000000
   19       15.019636   0.000000
   20       15.624936   0.000000
   21       16.313438   0.000000
   22       16.872628   0.000000
 
 -0.3750000E+00 -0.3750000E+00  0.1250000E+00  0.3125000E-01
    1       -9.327514   1.000000
    2       -7.881294   1.000000
    3       -7.276026   1.000000
    4       -4.730198   1.000000
    5       -2.505633   1.000000
    6       -0.522963   1.000000
    7       -0.357547   1.000000
    8       -0.285338   1.000000
    9        0.012525   1.000000
   10        1.446507   1.000000
   11        2.349347   1.000000
   12        3.083953   1.000000
   13        4.296726   1.000000
   14        5.386192   1.000000
   15        6.262775   1.000000
   16        9.904198   0.999023
   17       11.095517   0.000000
   18       14.090181   0.000000
   19       15.684581   0.000000
   20       16.468217   0.000000
   21       16.700648   0.000000
   22       17.216422   0.000000
 
 -0.1250000E+00 -0.3750000E+00  0.1250000E+00  0.3125000E-01
    1      -10.874963   1.000000
    2       -9.097738   1.000000
    3       -5.512668   1.000000
    4       -4.153135   1.000000
    5       -2.260211   1.000000
    6       -0.291694   1.000000
    7       -0.184222   1.000000
    8        0.501392   1.000000
    9        1.320627   1.000000
   10        2.327858   1.000000
   11        2.573208   1.000000
   12        2.662063   1.000000
   13        4.138238   1.000000
   14        6.989355   1.000000
   15        8.455519   1.000000
   16        8.962721   1.000000
   17        9.402776   1.000000
   18       12.304497   0.000000
   19       14.592734   0.000000
   20       14.923598   0.000000
   21       16.226669   0.000000
   22       17.774103   0.000000
 
  0.1250000E+00 -0.1250000E+00  0.1250000E+00  0.3125000E-01
    1      -11.660664   1.000000
    2       -6.687048   1.000000
    3       -5.300342   1.000000
    4       -3.861844   1.000000
    5       -3.581921   1.000000
    6       -3.115014   1.000000
    7       -2.766521   1.000000
    8        1.919337   1.000000
    9        2.604486   1.000000
   10        3.210615   1.000000
   11        4.883917   1.000000
   12        4.946581   1.000000
   13        5.635625   1.000000
   14        6.503224   1.000000
   15        6.595055   1.000000
   16        7.230889   1.000000
   17        8.789128   1.000000
   18       11.798541   0.000000
   19       13.410177   0.000000
   20       14.444252   0.000000
   21       15.238781   0.000000
   22       16.036922   0.000000
 
  0.3750000E+00 -0.1250000E+00  0.1250000E+00  0.3125000E-01
    1      -10.207446   1.000000
    2       -7.278259   1.000000
    3       -5.385572   1.000000
    4       -4.441994   1.000000
    5       -3.565217   1.000000
    6       -3.281703   1.000000
    7       -1.408890   1.000000
    8        0.818155   1.000000
    9        1.699111   1.000000
   10        2.791603   1.000000
   11        3.344076   1.000000
   12        3.532785   1.000000
   13        3.749973   1.000000
   14        4.939215   1.000000
   15        5.366003   1.000000
   16        6.996331   1.000000
   17       11.717121   0.000000
   18       15.287080   0.000000
   19       15.643427   0.000000
   20       15.746643   0.000000
   21       15.937774   0.000000
   22       17.052739   0.000000
 
 -0.3750000E+00 -0.1250000E+00  0.1250000E+00  0.3125000E-01
    1      -10.143606   1.000000
    2       -7.558555   1.000000
    3       -5.849383   1.000000
    4       -4.673651   1.000000
    5       -2.468951   1.000000
    6       -1.924246   1.000000
    7       -0.613876   1.000000
    8       -0.183001   1.000000
    9        1.220764   1.000000
   10        1.317445   1.000000
   11        2.683526   1.000000
   12        3.300508   1.000000
   13        3.518106   1.000000
   14        4.349556   1.000000
   15        5.654138   1.000000
   16        8.678389   1.000000
   17       13.428315   0.000000
   18       14.148239   0.000000
   19       14.977851   0.000000
   20       15.705084   0.000000
   21       16.590849   0.000000
   22       17.656889   0.000000
 
 -0.1250000E+00 -0.1250000E+00  0.1250000E+00  0.3125000E-01
    1      -11.648202   1.000000
    2       -6.875935   1.000000
    3       -5.328992   1.000000
    4       -4.813010   1.000000
    5       -3.542731   1.000000
    6       -2.144025   1.000000
    7        0.049729   1.000000
    8        1.547405   1.000000
    9        1.617257   1.000000
   10        1.874538   1.000000
   11        2.178003   1.000000
   12        4.199404   1.000000
   13        5.804690   1.000000
   14        5.896992   1.000000
   15        8.524676   1.000000
   16        9.369163   1.000000
   17       10.344021   0.000896
   18       10.616567   0.000000
   19       13.082345   0.000000
   20       13.655608   0.000000
   21       16.480834   0.000000
   22       17.655348   0.000000
 
  0.1250000E+00  0.1250000E+00  0.3750000E+00  0.3125000E-01
    1      -10.403822   1.000000
    2       -8.676763   1.000000
    3       -6.955171   1.000000
    4       -3.763442   1.000000
    5       -2.880953   1.000000
    6       -1.373488   1.000000
    7       -1.035875   1.000000
    8        0.619875   1.000000
    9        2.715766   1.000000
   10        2.741664   1.000000
   11        3.405785   1.000000
   12        3.827309   1.000000
   13        4.562619   1.000000
   14        6.611066   1.000000
   15        7.114433   1.000000
   16        7.860484   1.000000
   17       10.206172   0.120331
   18       12.396950   0.000000
   19       13.821863   0.000000
   20       15.602864   0.000000
   21       17.301772   0.000000
   22       17.696790   0.000000
 
  0.3750000E+00  0.1250000E+00  0.3750000E+00  0.3125000E-01
    1       -8.913205   1.000000
    2       -7.290279   1.000000
    3       -6.696611   1.000000
    4       -6.352381   1.000000
    5       -2.404860   1.000000
    6       -2.351573   1.000000
    7       -0.469436   1.000000
    8        0.064364   1.000000
    9        0.257842   1.000000
   10        0.995577   1.000000
   11        1.552702   1.000000
   12        3.923916   1.000000
   13        4.627486   1.000000
   14        4.970105   1.000000
   15        8.983927   1.000000
   16        9.298580   1.000000
   17       12.680324   0.000000
   18       14.020386   0.000000
   19       14.049464   0.000000
   20       17.142237   0.000000
   21       17.995392   0.000000
   22       18.141849   0.000000
 
 -0.3750000E+00  0.1250000E+00  0.3750000E+00  0.3125000E-01
    1       -9.082630   1.000000
    2       -7.574565   1.000000
    3       -6.415331   1.000000
    4       -5.314208   1.000000
    5       -4.324641   1.000000
    6       -0.771720   1.000000
    7       -0.535584   1.000000
    8       -0.143403   1.000000
    9        0.094803   1.000000
   10        1.958566   1.000000
   11        2.240562   1.000000
   12        2.453657   1.000000
   13        3.698211   1.000000
   14        3.982314   1.000000
   15       10.038874   0.883489
   16       10.559970   0.000000
   17       13.537168   0.000000
   18       13.691858   0.000000
   19       14.265090   0.000000
   20       16.592819   0.000000
   21       16.809765   0.000000
   22       17.395638   0.000000
 
 -0.1250000E+00  0.1250000E+00  0.3750000E+00  0.3125000E-01
    1      -10.478317   1.000000
    2       -8.688032   1.000000
    3       -6.636599   1.000000
    4       -4.477139   1.000000
    5       -2.107501   1.000000
    6       -1.898442   1.000000
    7       -0.044026   1.000000
    8        1.303212   1.000000
    9        2.316345   1.000000
   10        2.573857   1.000000
   11        2.746111   1.000000
   12        3.447432   1.000000
   13        4.094797   1.000000
   14        4.387045   1.000000
   15        7.984374   1.000000
   16        9.754950   1.000000
   17       11.352051   0.000000
   18       13.624571   0.000000
   19       13.954916   0.000000
   20       14.432265   0.000000
   21       15.872259   0.000000
   22       16.047394   0.000000
 
  0.1250000E+00  0.3750000E+00  0.3750000E+00  0.3125000E-01
    1       -9.344038   1.000000
    2       -8.845943   1.000000
    3       -8.242728   1.000000
    4       -5.458428   1.000000
    5       -2.007310   1.000000
    6       -0.398379   1.000000
    7        0.287842   1.000000
    8        1.334658   1.000000
    9        1.768647   1.000000
   10        2.958084   1.000000
   11        3.116801   1.000000
   12        3.685603   1.000000
   13        4.146303   1.000000
   14        6.892575   1.000000
   15        7.071138   1.000000
   16        8.336184   1.000000
   17       10.330351   0.001698
   18       11.199915   0.000000
   19       13.174486   0.000000
   20       16.046336   0.000000
   21       17.318517   0.000000
   22       18.949020   0.000000
 
  0.3750000E+00  0.3750000E+00  0.3750000E+00  0.3125000E-01
    1       -7.973973   1.000000
    2       -7.804529   1.000000
    3       -6.836134   1.000000
    4       -5.676597   1.000000
    5       -4.089662   1.000000
    6       -3.984208   1.000000
    7       -1.054116   1.000000
    8       -0.935929   1.000000
    9        1.670645   1.000000
   10        2.527112   1.000000
   11        3.536469   1.000000
   12        4.052108   1.000000
   13        5.598525   1.000000
   14        6.301029   1.000000
   15        7.938144   1.000000
   16       10.707730   0.000000
   17       10.891980   0.000000
   18       13.265121   0.000000
   19       13.294676   0.000000
   20       15.856650   0.000000
   21       16.042066   0.000000
   22       17.398485   0.000000
 
 -0.3750000E+00  0.3750000E+00  0.3750000E+00  0.3125000E-01
    1       -8.167909   1.000000
    2       -7.667614   1.000000
    3       -7.171982   1.000000
    4       -5.363235   1.000000
    5       -3.839755   1.000000
    6       -3.090947   1.000000
    7       -1.730165   1.000000
    8       -1.449078   1.000000
    9        1.964184   1.000000
   10        2.666253   1.000000
   11        2.914672   1.000000
   12        4.391180   1.000000
   13        5.055100   1.000000
   14        5.182265   1.000000
   15        9.435872   1.000000
   16       10.814832   0.000000
   17       11.447369   0.000000
   18       13.788145   0.000000
   19       13.996185   0.000000
   20       14.599613   0.000000
   21       15.228472   0.000000
   22       17.491145   0.000000
 
 -0.1250000E+00  0.3750000E+00  0.3750000E+00  0.3125000E-01
    1       -9.477927   1.000000
    2       -8.675615   1.000000
    3       -8.369983   1.000000
    4       -5.312578   1.000000
    5       -1.683899   1.000000
    6       -0.302384   1.000000
    7        1.063067   1.000000
    8        1.269151   1.000000
    9        1.847692   1.000000
   10        1.966818   1.000000
   11        2.576116   1.000000
   12        3.144290   1.000000
   13        4.176268   1.000000
   14        5.272458   1.000000
   15        7.897364   1.000000
   16        9.928517   0.997050
   17       10.279445   0.013567
   18       12.059916   0.000000
   19       14.770549   0.000000
   20       14.840935   0.000000
   21       16.873401   0.000000
   22       16.889427   0.000000
 
  0.1250000E+00 -0.3750000E+00  0.3750000E+00  0.3125000E-01
    1      -10.129876   1.000000
    2       -7.541371   1.000000
    3       -7.222132   1.000000
    4       -7.068339   1.000000
    5       -1.672786   1.000000
    6       -1.354012   1.000000
    7       -1.070533   1.000000
    8        2.281864   1.000000
    9        2.728430   1.000000
   10        3.048108   1.000000
   11        3.314244   1.000000
   12        4.760976   1.000000
   13        5.297016   1.000000
   14        6.145986   1.000000
   15        6.412929   1.000000
   16        7.168493   1.000000
   17       11.355489   0.000000
   18       12.245394   0.000000
   19       12.347189   0.000000
   20       15.432384   0.000000
   21       15.858841   0.000000
   22       16.553855   0.000000
 
  0.3750000E+00 -0.3750000E+00  0.3750000E+00  0.3125000E-01
    1       -8.918924   1.000000
    2       -6.078374   1.000000
    3       -6.069369   1.000000
    4       -6.036943   1.000000
    5       -5.011165   1.000000
    6       -3.904781   1.000000
    7       -2.944603   1.000000
    8       -0.381237   1.000000
    9        2.343256   1.000000
   10        2.887718   1.000000
   11        3.664620   1.000000
   12        4.626026   1.000000
   13        5.563483   1.000000
   14        6.205889   1.000000
   15        7.585090   1.000000
   16       11.616941   0.000000
   17       11.922348   0.000000
   18       12.169624   0.000000
   19       13.802312   0.000000
   20       14.610989   0.000000
   21       14.983236   0.000000
   22       16.247849   0.000000
 
 -0.3750000E+00 -0.3750000E+00  0.3750000E+00  0.3125000E-01
    1       -8.564293   1.000000
    2       -7.468980   1.000000
    3       -6.558765   1.000000
    4       -5.779429   1.000000
    5       -3.269579   1.000000
    6       -2.744354   1.000000
    7       -2.599602   1.000000
    8       -1.726402   1.000000
    9        1.131066   1.000000
   10        2.671496   1.000000
   11        3.481238   1.000000
   12        4.623910   1.000000
   13        5.217772   1.000000
   14        5.775336   1.000000
   15        9.302890   1.000000
   16       10.450138   0.000002
   17       11.546585   0.000000
   18       13.497912   0.000000
   19       14.899079   0.000000
   20       14.899777   0.000000
   21       15.918245   0.000000
   22       16.445665   0.000000
 
 -0.1250000E+00 -0.3750000E+00  0.3750000E+00  0.3125000E-01
    1      -10.063307   1.000000
    2       -7.729682   1.000000
    3       -7.386283   1.000000
    4       -7.092470   1.000000
    5       -0.656327   1.000000
    6        0.197387   1.000000
    7        0.521734   1.000000
    8        1.020128   1.000000
    9        1.073035   1.000000
   10        1.253038   1.000000
   11        2.540754   1.000000
   12        3.355810   1.000000
   13        4.253572   1.000000
   14        8.059891   1.000000
   15        8.330603   1.000000
   16        8.729284   1.000000
   17        9.934185   0.996243
   18       11.317364   0.000000
   19       13.693022   0.000000
   20       15.400020   0.000000
   21       16.043103   0.000000
   22       17.812907   0.000000
 
  0.1250000E+00 -0.1250000E+00  0.3750000E+00  0.3125000E-01
    1      -10.664988   1.000000
    2       -8.331595   1.000000
    3       -5.569154   1.000000
    4       -5.282493   1.000000
    5       -3.457094   1.000000
    6       -2.522055   1.000000
    7        0.032000   1.000000
    8        0.695421   1.000000
    9        2.833851   1.000000
   10        3.049472   1.000000
   11        4.036838   1.000000
   12        4.612763   1.000000
   13        5.386999   1.000000
   14        5.766461   1.000000
   15        6.285764   1.000000
   16        7.788258   1.000000
   17       11.299824   0.000000
   18       11.789090   0.000000
   19       13.984160   0.000000
   20       15.564339   0.000000
   21       15.973233   0.000000
   22       16.142003   0.000000
 
  0.3750000E+00 -0.1250000E+00  0.3750000E+00  0.3125000E-01
    1       -9.274703   1.000000
    2       -7.008693   1.000000
    3       -6.421037   1.000000
    4       -5.443326   1.000000
    5       -3.564259   1.000000
    6       -2.706528   1.000000
    7       -2.274995   1.000000
    8        1.057702   1.000000
    9        1.262522   1.000000
   10        1.364269   1.000000
   11        1.529865   1.000000
   12        3.930200   1.000000
   13        4.456099   1.000000
   14        5.839864   1.000000
   15        8.040549   1.000000
   16       10.469678   0.000000
   17       12.134895   0.000000
   18       14.360349   0.000000
   19       15.124082   0.000000
   20       15.809382   0.000000
   21       16.657581   0.000000
   22       17.373779   0.000000
 
 -0.3750000E+00 -0.1250000E+00  0.3750000E+00  0.3125000E-01
    1       -9.218048   1.000000
    2       -7.107217   1.000000
    3       -6.957577   1.000000
    4       -4.780076   1.000000
    5       -4.097748   1.000000
    6       -1.188006   1.000000
    7       -0.893334   1.000000
    8       -0.582706   1.000000
    9       -0.410973   1.000000
   10        2.305993   1.000000
   11        2.527878   1.000000
   12        2.958524   1.000000
   13        3.397710   1.000000
   14        4.599906   1.000000
   15        9.700471   1.000000
   16       10.877242   0.000000
   17       13.425800   0.000000
   18       14.008467   0.000000
   19       14.765234   0.000000
   20       15.768645   0.000000
   21       17.089508   0.000000
   22       18.266310   0.000000
 
 -0.1250000E+00 -0.1250000E+00  0.3750000E+00  0.3125000E-01
    1      -10.675252   1.000000
    2       -8.262684   1.000000
    3       -5.928561   1.000000
    4       -5.588963   1.000000
    5       -3.248105   1.000000
    6       -0.269226   1.000000
    7        0.487154   1.000000
    8        1.323954   1.000000
    9        1.517640   1.000000
   10        2.105251   1.000000
   11        2.434958   1.000000
   12        2.505685   1.000000
   13        4.712455   1.000000
   14        6.088208   1.000000
   15        8.693612   1.000000
   16        9.055990   1.000000
   17       11.761183   0.000000
   18       12.276068   0.000000
   19       13.067967   0.000000
   20       15.689861   0.000000
   21       15.705435   0.000000
   22       17.014552   0.000000
