       N       E                     dE             d eps       ncg     rms          rms(c)
DAV:   1     0.933108791267E+02    0.93311E+02   -0.18468E+04  1408   0.158E+03
DAV:   2    -0.610675263860E+02   -0.15438E+03   -0.14441E+03  1876   0.266E+02
DAV:   3    -0.675300264913E+02   -0.64625E+01   -0.63441E+01  1816   0.505E+01
DAV:   4    -0.676296066120E+02   -0.99580E-01   -0.99283E-01  1846   0.656E+00
DAV:   5    -0.676317265674E+02   -0.21200E-02   -0.21188E-02  1810   0.864E-01    0.102E+01
DAV:   6    -0.660616995730E+02    0.15700E+01   -0.11374E+00  1696   0.685E+00    0.597E+00
DAV:   7    -0.655671424311E+02    0.49456E+00   -0.12728E+00  1660   0.739E+00    0.137E+00
DAV:   8    -0.655739264018E+02   -0.67840E-02   -0.52468E-02  1766   0.150E+00    0.144E-01
DAV:   9    -0.655738430566E+02    0.83345E-04   -0.87019E-04  1756   0.209E-01    0.633E-02
DAV:  10    -0.655739059203E+02   -0.62864E-04   -0.66221E-05  1708   0.681E-02    0.755E-03
DAV:  11    -0.655739086718E+02   -0.27516E-05   -0.22957E-06  1466   0.118E-02    0.266E-03
DAV:  12    -0.655739087541E+02   -0.82250E-07   -0.39238E-07  1250   0.506E-03
   1 F= -.65573909E+02 E0= -.65571991E+02  d E =-.655739E+02
       N       E                     dE             d eps       ncg     rms          rms(c)
DAV:   1    -0.655087814901E+02    0.65127E-01   -0.24797E+01  1606   0.364E+01    0.114E+00
DAV:   2    -0.655324791642E+02   -0.23698E-01   -0.46080E-01  1748   0.453E+00    0.783E-01
DAV:   3    -0.655208242856E+02    0.11655E-01   -0.18935E-02  1674   0.113E+00    0.238E-01
DAV:   4    -0.655208001804E+02    0.24105E-04   -0.47715E-03  1758   0.436E-01    0.942E-02
DAV:   5    -0.655208171947E+02   -0.17014E-04   -0.30347E-04  1696   0.129E-01    0.313E-02
DAV:   6    -0.655208000164E+02    0.17178E-04   -0.50789E-05  1714   0.597E-02    0.491E-03
DAV:   7    -0.655207999442E+02    0.72193E-07   -0.34058E-06  1510   0.128E-02
   2 F= -.65520800E+02 E0= -.65519434E+02  d E =0.531088E-01
       N       E                     dE             d eps       ncg     rms          rms(c)
DAV:   1    -0.656082394098E+02   -0.87439E-01   -0.92499E+00  1636   0.221E+01    0.697E-01
DAV:   2    -0.656145970117E+02   -0.63576E-02   -0.15110E-01  1718   0.263E+00    0.453E-01
DAV:   3    -0.656103018826E+02    0.42951E-02   -0.13232E-02  1672   0.938E-01    0.660E-02
DAV:   4    -0.656103039886E+02   -0.21060E-05   -0.20296E-03  1720   0.313E-01    0.438E-02
DAV:   5    -0.656103023304E+02    0.16582E-05   -0.36023E-05  1804   0.421E-02    0.741E-03
DAV:   6    -0.656103005083E+02    0.18221E-05   -0.45969E-06  1690   0.166E-02    0.149E-03
DAV:   7    -0.656103005731E+02   -0.64741E-07   -0.73912E-07  1004   0.558E-03
   3 F= -.65610301E+02 E0= -.65607483E+02  d E =-.363918E-01
       N       E                     dE             d eps       ncg     rms          rms(c)
DAV:   1    -0.656748038047E+02   -0.64503E-01   -0.87851E+00  1498   0.213E+01    0.610E-01
DAV:   2    -0.656815487000E+02   -0.67449E-02   -0.13321E-01  1800   0.248E+00    0.386E-01
DAV:   3    -0.656786283862E+02    0.29203E-02   -0.92076E-03  1758   0.744E-01    0.501E-02
DAV:   4    -0.656787002473E+02   -0.71861E-04   -0.12298E-03  1726   0.235E-01    0.391E-02
DAV:   5    -0.656786978245E+02    0.24227E-05   -0.22092E-05  1776   0.371E-02    0.785E-03
DAV:   6    -0.656786985358E+02   -0.71130E-06   -0.26853E-06  1404   0.109E-02
   4 F= -.65678699E+02 E0= -.65677021E+02  d E =-.683980E-01
       N       E                     dE             d eps       ncg     rms          rms(c)
DAV:   1    -0.655381018424E+02    0.14060E+00   -0.79207E+01  1528   0.639E+01    0.201E+00
DAV:   2    -0.656263355758E+02   -0.88234E-01   -0.13919E+00  1758   0.806E+00    0.108E+00
DAV:   3    -0.656033495759E+02    0.22986E-01   -0.43175E-02  1720   0.164E+00    0.396E-01
DAV:   4    -0.656025342601E+02    0.81532E-03   -0.12521E-02  1736   0.762E-01    0.106E-01
DAV:   5    -0.656026633721E+02   -0.12911E-03   -0.13447E-03  1696   0.267E-01    0.386E-02
DAV:   6    -0.656026208669E+02    0.42505E-04   -0.10001E-04  1720   0.841E-02    0.667E-03
DAV:   7    -0.656026218767E+02   -0.10098E-05   -0.86616E-06  1744   0.189E-02    0.492E-03
DAV:   8    -0.656026217777E+02    0.99032E-07   -0.67759E-07   992   0.673E-03
   5 F= -.65602622E+02 E0= -.65599136E+02  d E =0.767880E-02
       N       E                     dE             d eps       ncg     rms          rms(c)
DAV:   1    -0.656718720385E+02   -0.69250E-01   -0.26169E+01  1570   0.372E+01    0.106E+00
DAV:   2    -0.656978611925E+02   -0.25989E-01   -0.46174E-01  1746   0.456E+00    0.701E-01
DAV:   3    -0.656877352706E+02    0.10126E-01   -0.20762E-02  1730   0.114E+00    0.171E-01
DAV:   4    -0.656880006945E+02   -0.26542E-03   -0.39005E-03  1730   0.388E-01    0.805E-02
DAV:   5    -0.656880068949E+02   -0.62005E-05   -0.17649E-04  1720   0.101E-01    0.197E-02
DAV:   6    -0.656880000890E+02    0.68059E-05   -0.24937E-05  1714   0.404E-02    0.283E-03
DAV:   7    -0.656880002112E+02   -0.12222E-06   -0.10310E-06  1036   0.828E-03
   6 F= -.65688000E+02 E0= -.65685495E+02  d E =-.776996E-01
       N       E                     dE             d eps       ncg     rms          rms(c)
DAV:   1    -0.656948359646E+02   -0.68359E-02   -0.23323E+00  1522   0.110E+01    0.253E-01
DAV:   2    -0.656973713046E+02   -0.25353E-02   -0.36199E-02  1790   0.128E+00    0.171E-01
DAV:   3    -0.656968065991E+02    0.56471E-03   -0.17850E-03  1710   0.331E-01    0.227E-02
DAV:   4    -0.656968248978E+02   -0.18299E-04   -0.23759E-04  1702   0.102E-01    0.189E-02
DAV:   5    -0.656968247233E+02    0.17447E-06   -0.32162E-06  1594   0.149E-02
   7 F= -.65696825E+02 E0= -.65694884E+02  d E =-.865242E-01
       N       E                     dE             d eps       ncg     rms          rms(c)
DAV:   1    -0.657307673149E+02   -0.33942E-01   -0.40442E+00  1426   0.145E+01    0.280E-01
DAV:   2    -0.657345522660E+02   -0.37850E-02   -0.46518E-02  1808   0.143E+00    0.184E-01
DAV:   3    -0.657341206625E+02    0.43160E-03   -0.19468E-03  1702   0.327E-01    0.270E-02
DAV:   4    -0.657341229000E+02   -0.22375E-05   -0.18109E-04  1728   0.927E-02    0.193E-02
DAV:   5    -0.657341238679E+02   -0.96785E-06   -0.59473E-06  1716   0.194E-02
   8 F= -.65734124E+02 E0= -.65733398E+02  d E =-.372991E-01
       N       E                     dE             d eps       ncg     rms          rms(c)
DAV:   1    -0.657400789701E+02   -0.59561E-02   -0.16615E+00  1414   0.931E+00    0.175E-01
DAV:   2    -0.657415412133E+02   -0.14622E-02   -0.18159E-02  1790   0.886E-01    0.117E-01
DAV:   3    -0.657413865592E+02    0.15465E-03   -0.69412E-04  1696   0.195E-01    0.164E-02
DAV:   4    -0.657413904618E+02   -0.39026E-05   -0.67561E-05  1724   0.560E-02    0.119E-02
DAV:   5    -0.657413912351E+02   -0.77332E-06   -0.18319E-06  1210   0.116E-02
   9 F= -.65741391E+02 E0= -.65740362E+02  d E =-.445665E-01
       N       E                     dE             d eps       ncg     rms          rms(c)
DAV:   1    -0.657475402473E+02   -0.61498E-02   -0.97503E-01  1456   0.716E+00    0.199E-01
DAV:   2    -0.657483170963E+02   -0.77685E-03   -0.15027E-02  1774   0.823E-01    0.126E-01
DAV:   3    -0.657479805353E+02    0.33656E-03   -0.10814E-03  1650   0.263E-01    0.171E-02
DAV:   4    -0.657479887848E+02   -0.82495E-05   -0.16135E-04  1740   0.845E-02    0.134E-02
DAV:   5    -0.657479895907E+02   -0.80592E-06   -0.24790E-06  1318   0.128E-02
  10 F= -.65747990E+02 E0= -.65744847E+02  d E =-.659836E-02
       N       E                     dE             d eps       ncg     rms          rms(c)
DAV:   1    -0.657551557232E+02   -0.71669E-02   -0.13603E+00  1480   0.847E+00    0.258E-01
DAV:   2    -0.657561498298E+02   -0.99411E-03   -0.21071E-02  1756   0.976E-01    0.161E-01
DAV:   3    -0.657556508412E+02    0.49899E-03   -0.16309E-03  1662   0.323E-01    0.224E-02
DAV:   4    -0.657556657012E+02   -0.14860E-04   -0.24452E-04  1692   0.103E-01    0.177E-02
DAV:   5    -0.657556665456E+02   -0.84441E-06   -0.49376E-06  1706   0.182E-02
  11 F= -.65755667E+02 E0= -.65752195E+02  d E =-.142753E-01
       N       E                     dE             d eps       ncg     rms          rms(c)
DAV:   1    -0.657758479016E+02   -0.20182E-01   -0.54195E+00  1468   0.169E+01    0.507E-01
DAV:   2    -0.657797865892E+02   -0.39387E-02   -0.84494E-02  1782   0.195E+00    0.318E-01
DAV:   3    -0.657776388864E+02    0.21477E-02   -0.67611E-03  1636   0.659E-01    0.446E-02
DAV:   4    -0.657776959157E+02   -0.57029E-04   -0.99259E-04  1702   0.207E-01    0.346E-02
DAV:   5    -0.657776957513E+02    0.16446E-06   -0.18746E-05  1822   0.346E-02    0.396E-03
DAV:   6    -0.657776956948E+02    0.56463E-07   -0.29175E-06  1298   0.117E-02
  12 F= -.65777696E+02 E0= -.65774984E+02  d E =-.363045E-01
       N       E                     dE             d eps       ncg     rms          rms(c)
DAV:   1    -0.657269752888E+02    0.50720E-01   -0.21464E+01  1528   0.338E+01    0.912E-01
DAV:   2    -0.657464068365E+02   -0.19432E-01   -0.34045E-01  1752   0.393E+00    0.573E-01
DAV:   3    -0.657383351796E+02    0.80717E-02   -0.22468E-02  1668   0.120E+00    0.747E-02
DAV:   4    -0.657386236724E+02   -0.28849E-03   -0.31073E-03  1698   0.356E-01    0.572E-02
DAV:   5    -0.657386231934E+02    0.47901E-06   -0.39666E-05  1790   0.505E-02    0.126E-02
DAV:   6    -0.657386239701E+02   -0.77667E-06   -0.85054E-06  1650   0.207E-02
  13 F= -.65738624E+02 E0= -.65737711E+02  d E =0.276727E-02
       N       E                     dE             d eps       ncg     rms          rms(c)
DAV:   1    -0.657783619857E+02   -0.39739E-01   -0.12010E+01  1516   0.254E+01    0.664E-01
DAV:   2    -0.657879654590E+02   -0.96035E-02   -0.18610E-01  1744   0.290E+00    0.450E-01
DAV:   3    -0.657837466338E+02    0.42188E-02   -0.87774E-03  1690   0.755E-01    0.108E-01
DAV:   4    -0.657838730149E+02   -0.12638E-03   -0.16305E-03  1766   0.248E-01    0.593E-02
DAV:   5    -0.657838771723E+02   -0.41574E-05   -0.43439E-05  1648   0.502E-02    0.164E-02
DAV:   6    -0.657838752597E+02    0.19125E-05   -0.68579E-06  1666   0.216E-02    0.276E-03
DAV:   7    -0.657838752940E+02   -0.34251E-07   -0.33570E-07   902   0.459E-03
  14 F= -.65783875E+02 E0= -.65781250E+02  d E =-.424841E-01
       N       E                     dE             d eps       ncg     rms          rms(c)
DAV:   1    -0.657841139416E+02   -0.23868E-03   -0.78626E-02  1510   0.205E+00    0.537E-02
DAV:   2    -0.657841776184E+02   -0.63677E-04   -0.11893E-03  1768   0.232E-01    0.355E-02
DAV:   3    -0.657841507284E+02    0.26890E-04   -0.85620E-05  1650   0.742E-02    0.488E-03
DAV:   4    -0.657841514495E+02   -0.72112E-06   -0.12136E-05  1666   0.233E-02    0.403E-03
DAV:   5    -0.657841516870E+02   -0.23747E-06   -0.15350E-07   932   0.321E-03
  15 F= -.65784152E+02 E0= -.65781948E+02  d E =-.427605E-01
       N       E                     dE             d eps       ncg     rms          rms(c)
DAV:   1    -0.657845267166E+02   -0.37527E-03   -0.19976E-03  1492   0.326E-01    0.825E-03
DAV:   2    -0.657845285096E+02   -0.17929E-05   -0.29405E-05  1780   0.364E-02    0.547E-03
DAV:   3    -0.657845280258E+02    0.48380E-06   -0.18648E-06  1114   0.112E-02
  16 F= -.65784528E+02 E0= -.65782398E+02  d E =-.376339E-03
       N       E                     dE             d eps       ncg     rms          rms(c)
DAV:   1    -0.657855854249E+02   -0.10569E-02   -0.17964E-02  1468   0.979E-01    0.249E-02
DAV:   2    -0.657856003403E+02   -0.14915E-04   -0.25999E-04  1792   0.108E-01    0.165E-02
DAV:   3    -0.657855952533E+02    0.50870E-05   -0.17690E-05  1612   0.334E-02    0.230E-03
DAV:   4    -0.657855954190E+02   -0.16564E-06   -0.24031E-06  1296   0.104E-02
  17 F= -.65785595E+02 E0= -.65783683E+02  d E =-.144373E-02
       N       E                     dE             d eps       ncg     rms          rms(c)
DAV:   1    -0.657873780752E+02   -0.17828E-02   -0.71730E-02  1468   0.196E+00    0.488E-02
DAV:   2    -0.657874365984E+02   -0.58523E-04   -0.10419E-03  1792   0.217E-01    0.325E-02
DAV:   3    -0.657874149457E+02    0.21653E-04   -0.70522E-05  1604   0.667E-02    0.451E-03
DAV:   4    -0.657874155509E+02   -0.60517E-06   -0.96152E-06  1678   0.207E-02
  18 F= -.65787416E+02 E0= -.65785858E+02  d E =-.326386E-02
       N       E                     dE             d eps       ncg     rms          rms(c)
DAV:   1    -0.657894568855E+02   -0.20419E-02   -0.28652E-01  1456   0.391E+00    0.961E-02
DAV:   2    -0.657896902886E+02   -0.23340E-03   -0.41465E-03  1790   0.432E-01    0.641E-02
DAV:   3    -0.657896028982E+02    0.87390E-04   -0.28181E-04  1598   0.133E-01    0.897E-03
DAV:   4    -0.657896050569E+02   -0.21586E-05   -0.38170E-05  1716   0.415E-02    0.737E-03
DAV:   5    -0.657896055671E+02   -0.51022E-06   -0.48374E-07   980   0.572E-03
  19 F= -.65789606E+02 E0= -.65788331E+02  d E =-.545388E-02
       N       E                     dE             d eps       ncg     rms          rms(c)
DAV:   1    -0.657922547633E+02   -0.26497E-02   -0.20777E-03  1420   0.332E-01    0.705E-03
DAV:   2    -0.657922566146E+02   -0.18513E-05   -0.25654E-05  1846   0.338E-02    0.470E-03
DAV:   3    -0.657922563145E+02    0.30012E-06   -0.11687E-06  1088   0.860E-03
  20 F= -.65792256E+02 E0= -.65790984E+02  d E =-.265075E-02
       N       E                     dE             d eps       ncg     rms          rms(c)
DAV:   1    -0.658001353654E+02   -0.78788E-02   -0.18673E-02  1420   0.996E-01    0.213E-02
DAV:   2    -0.658001511152E+02   -0.15750E-04   -0.22661E-04  1846   0.100E-01    0.142E-02
DAV:   3    -0.658001481012E+02    0.30139E-05   -0.11232E-05  1658   0.256E-02    0.198E-03
DAV:   4    -0.658001482134E+02   -0.11213E-06   -0.12886E-06  1198   0.767E-03
  21 F= -.65800148E+02 E0= -.65798858E+02  d E =-.105426E-01
       N       E                     dE             d eps       ncg     rms          rms(c)
DAV:   1    -0.658155914555E+02   -0.15443E-01   -0.74610E-02  1420   0.199E+00    0.423E-02
DAV:   2    -0.658156530754E+02   -0.61620E-04   -0.90721E-04  1846   0.201E-01    0.281E-02
DAV:   3    -0.658156400328E+02    0.13043E-04   -0.45422E-05  1664   0.516E-02    0.390E-03
DAV:   4    -0.658156404361E+02   -0.40331E-06   -0.52703E-06  1486   0.154E-02
  22 F= -.65815640E+02 E0= -.65814200E+02  d E =-.260349E-01
       N       E                     dE             d eps       ncg     rms          rms(c)
DAV:   1    -0.658453925279E+02   -0.29752E-01   -0.29822E-01  1420   0.399E+00    0.862E-02
DAV:   2    -0.658456335196E+02   -0.24099E-03   -0.36225E-03  1846   0.402E-01    0.568E-02
DAV:   3    -0.658455792962E+02    0.54223E-04   -0.18847E-04  1670   0.105E-01    0.800E-03
DAV:   4    -0.658455808540E+02   -0.15578E-05   -0.22236E-05  1684   0.315E-02    0.627E-03
DAV:   5    -0.658455812432E+02   -0.38915E-06   -0.36440E-07  1010   0.542E-03
  23 F= -.65845581E+02 E0= -.65843571E+02  d E =-.559757E-01
       N       E                     dE             d eps       ncg     rms          rms(c)
DAV:   1    -0.659026061597E+02   -0.57025E-01   -0.11912E+00  1420   0.797E+00    0.180E-01
DAV:   2    -0.659035301001E+02   -0.92394E-03   -0.14467E-02  1838   0.804E-01    0.117E-01
DAV:   3    -0.659032998390E+02    0.23026E-03   -0.81265E-04  1676   0.219E-01    0.169E-02
DAV:   4    -0.659033065535E+02   -0.67145E-05   -0.97896E-05  1698   0.656E-02    0.131E-02
DAV:   5    -0.659033076066E+02   -0.10531E-05   -0.18535E-06  1134   0.122E-02    0.116E-03
DAV:   6    -0.659033075904E+02    0.16230E-07   -0.35071E-07   890   0.413E-03
  24 F= -.65903308E+02 E0= -.65901284E+02  d E =-.113702E+00
       N       E                     dE             d eps       ncg     rms          rms(c)
DAV:   1    -0.660060049631E+02   -0.10270E+00   -0.47528E+00  1414   0.160E+01    0.369E-01
DAV:   2    -0.660093590141E+02   -0.33541E-02   -0.57900E-02  1822   0.162E+00    0.235E-01
DAV:   3    -0.660082416707E+02    0.11173E-02   -0.36337E-03  1658   0.467E-01    0.328E-02
DAV:   4    -0.660082693537E+02   -0.27683E-04   -0.44373E-04  1660   0.140E-01    0.252E-02
DAV:   5    -0.660082724797E+02   -0.31261E-05   -0.75144E-06  1768   0.226E-02    0.235E-03
DAV:   6    -0.660082723638E+02    0.11598E-06   -0.63828E-07  1066   0.581E-03
  25 F= -.66008272E+02 E0= -.66005357E+02  d E =-.218667E+00
       N       E                     dE             d eps       ncg     rms          rms(c)
DAV:   1    -0.661789662015E+02   -0.17069E+00   -0.18946E+01  1492   0.320E+01    0.831E-01
DAV:   2    -0.661891676908E+02   -0.10201E-01   -0.23883E-01  1768   0.331E+00    0.510E-01
DAV:   3    -0.661827857700E+02    0.63819E-02   -0.18119E-02  1644   0.106E+00    0.676E-02
DAV:   4    -0.661830122522E+02   -0.22648E-03   -0.24108E-03  1702   0.309E-01    0.518E-02
DAV:   5    -0.661830204566E+02   -0.82043E-05   -0.31873E-05  1800   0.466E-02    0.112E-02
DAV:   6    -0.661830220951E+02   -0.16385E-05   -0.46742E-06  1412   0.159E-02    0.269E-03
DAV:   7    -0.661830220665E+02    0.28579E-07   -0.22557E-07   926   0.376E-03
  26 F= -.66183022E+02 E0= -.66180365E+02  d E =-.393416E+00
       N       E                     dE             d eps       ncg     rms          rms(c)
DAV:   1    -0.661200110549E+02    0.63011E-01   -0.75700E+01  1432   0.641E+01    0.192E+00
DAV:   2    -0.661625493661E+02   -0.42538E-01   -0.10850E+00  1782   0.718E+00    0.112E+00
DAV:   3    -0.661301649032E+02    0.32384E-01   -0.70231E-02  1642   0.210E+00    0.210E-01
DAV:   4    -0.661312211536E+02   -0.10563E-02   -0.12163E-02  1774   0.668E-01    0.987E-02
DAV:   5    -0.661312592809E+02   -0.38127E-04   -0.31548E-04  1654   0.138E-01    0.373E-02
DAV:   6    -0.661312796817E+02   -0.20401E-04   -0.29696E-05  1690   0.456E-02    0.487E-03
DAV:   7    -0.661312798344E+02   -0.15268E-06   -0.11235E-06  1088   0.852E-03
  27 F= -.66131280E+02 E0= -.66127390E+02  d E =-.341674E+00
       N       E                     dE             d eps       ncg     rms          rms(c)
DAV:   1    -0.662484444609E+02   -0.11716E+00   -0.23824E+01  1426   0.360E+01    0.105E+00
DAV:   2    -0.662529819833E+02   -0.45375E-02   -0.31277E-01  1804   0.382E+00    0.676E-01
DAV:   3    -0.662417911345E+02    0.11191E-01   -0.23244E-02  1670   0.122E+00    0.141E-01
DAV:   4    -0.662421670161E+02   -0.37588E-03   -0.40512E-03  1738   0.380E-01    0.872E-02
DAV:   5    -0.662421807256E+02   -0.13710E-04   -0.62015E-05  1648   0.629E-02    0.290E-02
DAV:   6    -0.662421818673E+02   -0.11417E-05   -0.80818E-06  1634   0.245E-02    0.340E-03
DAV:   7    -0.662421819301E+02   -0.62837E-07   -0.34820E-07   890   0.487E-03
  28 F= -.66242182E+02 E0= -.66238216E+02  d E =-.452576E+00
       N       E                     dE             d eps       ncg     rms          rms(c)
DAV:   1    -0.663077547168E+02   -0.65573E-01   -0.20203E+00  1408   0.104E+01    0.205E-01
DAV:   2    -0.663085789965E+02   -0.82428E-03   -0.14648E-02  1816   0.779E-01    0.136E-01
DAV:   3    -0.663083270833E+02    0.25191E-03   -0.97356E-04  1650   0.230E-01    0.217E-02
DAV:   4    -0.663083305800E+02   -0.34967E-05   -0.10099E-04  1710   0.679E-02    0.148E-02
DAV:   5    -0.663083333078E+02   -0.27278E-05   -0.28491E-06  1524   0.146E-02    0.107E-03
DAV:   6    -0.663083333398E+02   -0.32007E-07   -0.18021E-07   914   0.296E-03
  29 F= -.66308333E+02 E0= -.66304305E+02  d E =-.661514E-01
       N       E                     dE             d eps       ncg     rms          rms(c)
DAV:   1    -0.664684787963E+02   -0.16015E+00   -0.17913E+01  1426   0.310E+01    0.667E-01
DAV:   2    -0.664743776384E+02   -0.58988E-02   -0.13464E-01  1814   0.238E+00    0.431E-01
DAV:   3    -0.664712613228E+02    0.31163E-02   -0.10595E-02  1640   0.764E-01    0.623E-02
DAV:   4    -0.664713474951E+02   -0.86172E-04   -0.11533E-03  1712   0.222E-01    0.425E-02
DAV:   5    -0.664713641350E+02   -0.16640E-04   -0.25345E-05  1748   0.420E-02    0.101E-02
DAV:   6    -0.664713663585E+02   -0.22235E-05   -0.28779E-06  1346   0.134E-02    0.207E-03
DAV:   7    -0.664713663424E+02    0.16103E-07   -0.14127E-07   920   0.296E-03
  30 F= -.66471366E+02 E0= -.66467327E+02  d E =-.229184E+00
       N       E                     dE             d eps       ncg     rms          rms(c)
DAV:   1    -0.664032845434E+02    0.68082E-01   -0.70689E+01  1438   0.614E+01    0.116E+00
DAV:   2    -0.664503498350E+02   -0.47065E-01   -0.62283E-01  1760   0.502E+00    0.799E-01
DAV:   3    -0.664426950615E+02    0.76548E-02   -0.16845E-02  1676   0.906E-01    0.264E-01
DAV:   4    -0.664424158552E+02    0.27921E-03   -0.35026E-03  1756   0.395E-01    0.563E-02
DAV:   5    -0.664424682414E+02   -0.52386E-04   -0.21663E-04  1632   0.109E-01    0.211E-02
DAV:   6    -0.664424703233E+02   -0.20819E-05   -0.95598E-06  1680   0.264E-02    0.483E-03
DAV:   7    -0.664424703873E+02   -0.64022E-07   -0.97457E-07   998   0.746E-03
  31 F= -.66442470E+02 E0= -.66441280E+02  d E =-.200288E+00
       N       E                     dE             d eps       ncg     rms          rms(c)
DAV:   1    -0.665345574028E+02   -0.92087E-01   -0.25534E+01  1432   0.369E+01    0.665E-01
DAV:   2    -0.665476281930E+02   -0.13071E-01   -0.18128E-01  1828   0.266E+00    0.460E-01
DAV:   3    -0.665452411592E+02    0.23870E-02   -0.49749E-03  1670   0.515E-01    0.105E-01
DAV:   4    -0.665452999771E+02   -0.58818E-04   -0.72496E-04  1840   0.170E-01    0.310E-02
DAV:   5    -0.665453132162E+02   -0.13239E-04   -0.20585E-05  1670   0.360E-02    0.970E-03
DAV:   6    -0.665453133523E+02   -0.13604E-06   -0.24832E-06  1398   0.134E-02
  32 F= -.66545313E+02 E0= -.66543043E+02  d E =-.303131E+00
       N       E                     dE             d eps       ncg     rms          rms(c)
DAV:   1    -0.666489954565E+02   -0.10368E+00   -0.16514E+00  1618   0.943E+00    0.303E-01
DAV:   2    -0.666499750203E+02   -0.97956E-03   -0.30231E-02  1726   0.118E+00    0.204E-01
DAV:   3    -0.666488110350E+02    0.11640E-02   -0.30365E-03  1648   0.455E-01    0.217E-02
DAV:   4    -0.666488410647E+02   -0.30030E-04   -0.44923E-04  1708   0.137E-01    0.194E-02
DAV:   5    -0.666488399911E+02    0.10736E-05   -0.44049E-06  1550   0.140E-02    0.359E-03
DAV:   6    -0.666488396852E+02    0.30589E-06   -0.53612E-07   926   0.591E-03
  33 F= -.66648840E+02 E0= -.66646358E+02  d E =-.103526E+00
       N       E                     dE             d eps       ncg     rms          rms(c)
DAV:   1    -0.666944599758E+02   -0.45620E-01   -0.26616E+00  1654   0.120E+01    0.381E-01
DAV:   2    -0.666959445741E+02   -0.14846E-02   -0.47719E-02  1714   0.148E+00    0.254E-01
DAV:   3    -0.666941039967E+02    0.18406E-02   -0.47281E-03  1654   0.566E-01    0.268E-02
DAV:   4    -0.666941520249E+02   -0.48028E-04   -0.69261E-04  1714   0.169E-01    0.238E-02
DAV:   5    -0.666941508682E+02    0.11566E-05   -0.66170E-06  1676   0.171E-02    0.532E-03
DAV:   6    -0.666941504768E+02    0.39143E-06   -0.62106E-07   962   0.643E-03
  34 F= -.66694150E+02 E0= -.66691839E+02  d E =-.148837E+00
       N       E                     dE             d eps       ncg     rms          rms(c)
DAV:   1    -0.666962811277E+02   -0.21303E-02   -0.25769E-02  1426   0.117E+00    0.217E-02
DAV:   2    -0.666962911507E+02   -0.10023E-04   -0.15709E-04  1862   0.794E-02    0.148E-02
DAV:   3    -0.666962886505E+02    0.25002E-05   -0.97523E-06  1664   0.226E-02    0.250E-03
DAV:   4    -0.666962885878E+02    0.62679E-07   -0.10224E-06  1040   0.730E-03
  35 F= -.66696289E+02 E0= -.66694221E+02  d E =-.213811E-02
       N       E                     dE             d eps       ncg     rms          rms(c)
DAV:   1    -0.667013483962E+02   -0.50597E-02   -0.23190E-01  1426   0.352E+00    0.636E-02
DAV:   2    -0.667014418189E+02   -0.93423E-04   -0.14068E-03  1856   0.237E-01    0.440E-02
DAV:   3    -0.667014201346E+02    0.21684E-04   -0.84516E-05  1638   0.660E-02    0.782E-03
DAV:   4    -0.667014193107E+02    0.82393E-06   -0.94042E-06  1674   0.217E-02
  36 F= -.66701419E+02 E0= -.66699964E+02  d E =-.726883E-02
       N       E                     dE             d eps       ncg     rms          rms(c)
DAV:   1    -0.667041138891E+02   -0.26938E-02   -0.92728E-01  1426   0.704E+00    0.125E-01
DAV:   2    -0.667045015297E+02   -0.38764E-03   -0.56197E-03  1862   0.474E-01    0.875E-02
DAV:   3    -0.667044171453E+02    0.84384E-04   -0.31737E-04  1650   0.127E-01    0.153E-02
DAV:   4    -0.667044137435E+02    0.34018E-05   -0.34565E-05  1698   0.418E-02    0.584E-03
DAV:   5    -0.667044143762E+02   -0.63270E-06   -0.66657E-07  1088   0.667E-03
  37 F= -.66704414E+02 E0= -.66703381E+02  d E =-.102639E-01
       N       E                     dE             d eps       ncg     rms          rms(c)
DAV:   1    -0.667046374380E+02   -0.22369E-03   -0.43469E-02  1426   0.152E+00    0.270E-02
DAV:   2    -0.667046553879E+02   -0.17950E-04   -0.26018E-04  1856   0.102E-01    0.188E-02
DAV:   3    -0.667046515133E+02    0.38746E-05   -0.14697E-05  1656   0.274E-02    0.336E-03
DAV:   4    -0.667046513233E+02    0.19001E-06   -0.15671E-06  1282   0.907E-03
  38 F= -.66704651E+02 E0= -.66703589E+02  d E =-.105008E-01
       N       E                     dE             d eps       ncg     rms          rms(c)
DAV:   1    -0.667055591931E+02   -0.90768E-03   -0.95270E-02  1588   0.227E+00    0.547E-02
DAV:   2    -0.667056330837E+02   -0.73891E-04   -0.12993E-03  1772   0.246E-01    0.377E-02
DAV:   3    -0.667056024708E+02    0.30613E-04   -0.10202E-04  1648   0.799E-02    0.514E-03
DAV:   4    -0.667056024951E+02   -0.24326E-07   -0.13778E-05  1684   0.257E-02    0.328E-03
DAV:   5    -0.667056026850E+02   -0.18990E-06   -0.17388E-07   914   0.309E-03
  39 F= -.66705603E+02 E0= -.66704490E+02  d E =-.951362E-03
       N       E                     dE             d eps       ncg     rms          rms(c)
DAV:   1    -0.667056155917E+02   -0.13097E-04   -0.10631E-03  1564   0.239E-01    0.582E-03
DAV:   2    -0.667056162638E+02   -0.67211E-06   -0.14248E-05  1772   0.258E-02    0.399E-03
DAV:   3    -0.667056157770E+02    0.48681E-06   -0.10230E-06   962   0.826E-03
  40 F= -.66705616E+02 E0= -.66704510E+02  d E =-.964454E-03
       N       E                     dE             d eps       ncg     rms          rms(c)
DAV:   1    -0.667056220877E+02   -0.58239E-05   -0.58286E-04  1558   0.178E-01    0.513E-03
DAV:   2    -0.667056224720E+02   -0.38430E-06   -0.95084E-06  1726   0.208E-02
  41 F= -.66705622E+02 E0= -.66704531E+02  d E =-.669499E-05
       N       E                     dE             d eps       ncg     rms          rms(c)
DAV:   1    -0.667056223322E+02   -0.24452E-06   -0.14186E-05  1552   0.284E-02    0.800E-04
DAV:   2    -0.667056223591E+02   -0.26866E-07   -0.47249E-07   794   0.456E-03
  42 F= -.66705622E+02 E0= -.66704528E+02  d E =-.658207E-05
