 vasp.6.2.1 16May21 (build Oct 21 2023 21:03:18) complex                        
  
 executed on             LinuxIFC date 2024.06.06  18:34:48
 running on    2 total cores
 distrk:  each k-point on    2 cores,    1 groups
 distr:  one band on NCORE=   1 cores,    2 groups


--------------------------------------------------------------------------------------------------------


 INCAR:
   PREC = accurate
   ENCUT = 600
   EDIFF = 1e-06
   EDIFFG = 1e-05
   IBRION = 2
   ISIF = 2
   ISYM = 2
   ISMEAR = 0
   SIGMA = 0.1
   LREAL = False
   NPAR = 11
   NSW = 300
   ISTART = 0
   LCHARG = False
   LPLANE = False
   LWAVE = False

 POTCAR:    PAW_PBE C 08Apr2002                   
 -----------------------------------------------------------------------------
|                                                                             |
|           W    W    AA    RRRRR   N    N  II  N    N   GGGG   !!!           |
|           W    W   A  A   R    R  NN   N  II  NN   N  G    G  !!!           |
|           W    W  A    A  R    R  N N  N  II  N N  N  G       !!!           |
|           W WW W  AAAAAA  RRRRR   N  N N  II  N  N N  G  GGG   !            |
|           WW  WW  A    A  R   R   N   NN  II  N   NN  G    G                |
|           W    W  A    A  R    R  N    N  II  N    N   GGGG   !!!           |
|                                                                             |
|     The value NPAR = 11 specified in the INCAR file was overwritten,        |
|     because it was not compatible with the 2 processes available:           |
|     NPAR = 2                                                                |
|     was used instead, please check that this makes sense for your           |
|     machine.                                                                |
|                                                                             |
 -----------------------------------------------------------------------------

 POTCAR:    PAW_PBE C 08Apr2002                   
   SHA256 =  253f7b50bb8d59471dbedb8285d89021f4a42ed1a2c5d38a03a736e69125dd95 C/POTCAR              
   COPYR  = (c) Copyright 08Apr2002 Georg Kresse                                                    
   COPYR  = This file is part of the software VASP. Any use, copying, and all other rights are regul
   COPYR  = If you do not have a valid VASP license, you may not use, copy or distribute this file. 
   VRHFIN =C: s2p2                                                                                  
   LEXCH  = PE                                                                                      
   EATOM  =   147.1560 eV,   10.8157 Ry                                                             
                                                                                                    
   TITEL  = PAW_PBE C 08Apr2002                                                                     
   LULTRA =        F    use ultrasoft PP ?                                                          
   IUNSCR =        1    unscreen: 0-lin 1-nonlin 2-no                                               
   RPACOR =    1.200    partial core radius                                                         
   POMASS =   12.011; ZVAL   =    4.000    mass and valenz                                          
   RCORE  =    1.500    outmost cutoff radius                                                       
   RWIGS  =    1.630; RWIGS  =    0.863    wigner-seitz radius (au A)                               
   ENMAX  =  400.000; ENMIN  =  300.000 eV                                                          
   ICORE  =        2    local potential                                                             
   LCOR   =        T    correct aug charges                                                         
   LPAW   =        T    paw PP                                                                      
   EAUG   =  644.873                                                                                
   DEXC   =    0.000                                                                                
   RMAX   =    1.529    core radius for proj-oper                                                   
   RAUG   =    1.300    factor for augmentation sphere                                              
   RDEP   =    1.501    radius for radial grids                                                     
   RDEPT  =    1.300    core radius for aug-charge                                                  
                                                                                                    
   Atomic configuration                                                                             
    4 entries                                                                                       
     n  l   j            E        occ.                                                              
     1  0  0.50      -273.3789   2.0000                                                             
     2  0  0.50       -13.7508   2.0000                                                             
     2  1  0.50        -5.2854   2.0000                                                             
     3  2  1.50        -5.4423   0.0000                                                             
   Description                                                                                      
     l       E           TYP  RCUT    TYP  RCUT                                                     
     0    -13.7508458     23  1.200                                                                 
     0     -8.2022199     23  1.200                                                                 
     1     -5.2854383     23  1.500                                                                 
     1     34.0145650     23  1.500                                                                 
     2     -5.4423304      7  1.500                                                                 
  local pseudopotential read in
  partial core-charges read in
  partial kinetic energy density read in
  atomic valenz-charges read in
  non local Contribution for L=           0  read in
    real space projection operators read in
  non local Contribution for L=           0  read in
    real space projection operators read in
  non local Contribution for L=           1  read in
    real space projection operators read in
  non local Contribution for L=           1  read in
    real space projection operators read in
    PAW grid and wavefunctions read in
 
   number of l-projection  operators is LMAX  =           4
   number of lm-projection operators is LMMAX =           8
 
  PAW_PBE C 08Apr2002                   :
 energy of atom  1       EATOM= -147.1560
 kinetic energy error for atom=    0.0057 (will be added to EATOM!!)
 
 
 POSCAR: C
  positions in direct lattice
  No initial velocities read in
 exchange correlation table for  LEXCH =        8
   RHO(1)=    0.500       N(1)  =     2000
   RHO(2)=  100.500       N(2)  =     4000
 


--------------------------------------------------------------------------------------------------------


 ion  position               nearest neighbor table
   1  0.125  0.125  0.625-   2 1.47   4 1.54   8 1.68   6 1.70
   2  0.375  0.375  0.875-   1 1.47   3 1.54   7 1.68   5 1.70
   3  0.125  0.625  0.125-   4 1.47   2 1.54   6 1.68   8 1.70
   4  0.375  0.875  0.375-   3 1.47   1 1.54   5 1.68   7 1.70
   5  0.625  0.125  0.125-   6 1.47   8 1.54   4 1.68   2 1.70
   6  0.875  0.375  0.375-   5 1.47   7 1.54   3 1.68   1 1.70
   7  0.625  0.625  0.625-   8 1.47   6 1.54   2 1.68   4 1.70
   8  0.875  0.875  0.875-   7 1.47   5 1.54   1 1.68   3 1.70
 
  LATTYP: Found a triclinic cell.
 ALAT       =     5.1082566573
 B/A-ratio  =     0.6019236225
 C/A-ratio  =     0.7250636690
 COS(alpha) =     0.0243846049
 COS(beta)  =     0.1413943497
 COS(gamma) =     0.5659800064
  
  Lattice vectors:
  
 A1 = (   4.9306271465,   0.7905099215,   1.0762416472)
 A2 = (   2.0177573239,   1.2877493228,  -1.9299303806)
 A3 = (  -0.3503576984,   3.2822797562,   1.6799128957)


Analysis of symmetry for initial positions (statically):
=====================================================================
 Subroutine PRICEL returns following result:
 
  LATTYP: Found a triclinic cell.
 ALAT       =     3.0117399487
 B/A-ratio  =     1.4179831906
 C/A-ratio  =     0.8839920372
 COS(alpha) =     0.0091426444
 COS(beta)  =     0.6377105932
 COS(gamma) =     0.6940756069
  
  Lattice vectors:
  
 A1 = (  -1.2812560621,  -1.3925201774,  -2.3430424617)
 A2 = (  -3.2990133860,  -2.6802695002,  -0.4131120811)
 A3 = (  -0.4475562493,   0.8924943620,  -2.4680512042)
 
   4 primitive cells build up your supercell.
 

 Routine SETGRP: Setting up the symmetry group for a 
 triclinic supercell.


 Subroutine GETGRP returns: Found  2 space group operations
 (whereof  1 operations were pure point group operations)
 out of a pool of  2 trial point group operations.


The static configuration has the point symmetry C_1 .
 The point group associated with its full space group is S_2 .


Analysis of symmetry for dynamics (positions and initial velocities):
=====================================================================
 Subroutine PRICEL returns following result:
 
  LATTYP: Found a triclinic cell.
 ALAT       =     3.0117399487
 B/A-ratio  =     1.4179831906
 C/A-ratio  =     0.8839920372
 COS(alpha) =     0.0091426444
 COS(beta)  =     0.6377105932
 COS(gamma) =     0.6940756069
  
  Lattice vectors:
  
 A1 = (  -1.2812560621,  -1.3925201774,  -2.3430424617)
 A2 = (  -3.2990133860,  -2.6802695002,  -0.4131120811)
 A3 = (  -0.4475562493,   0.8924943620,  -2.4680512042)
 
   4 primitive cells build up your supercell.
 

 Routine SETGRP: Setting up the symmetry group for a 
 triclinic supercell.


 Subroutine GETGRP returns: Found  2 space group operations
 (whereof  1 operations were pure point group operations)
 out of a pool of  2 trial point group operations.


The dynamic configuration has the point symmetry C_1 .
 The point group associated with its full space group is S_2 .


Analysis of constrained symmetry for selective dynamics:
=====================================================================
 Subroutine PRICEL returns following result:
 
  LATTYP: Found a triclinic cell.
 ALAT       =     3.0117399487
 B/A-ratio  =     1.4179831906
 C/A-ratio  =     0.8839920372
 COS(alpha) =     0.0091426444
 COS(beta)  =     0.6377105932
 COS(gamma) =     0.6940756069
  
  Lattice vectors:
  
 A1 = (  -1.2812560621,  -1.3925201774,  -2.3430424617)
 A2 = (  -3.2990133860,  -2.6802695002,  -0.4131120811)
 A3 = (  -0.4475562493,   0.8924943620,  -2.4680512042)
 
   4 primitive cells build up your supercell.
 

 Routine SETGRP: Setting up the symmetry group for a 
 triclinic supercell.


 Subroutine GETGRP returns: Found  2 space group operations
 (whereof  1 operations were pure point group operations)
 out of a pool of  2 trial point group operations.


The constrained configuration has the point symmetry C_1 .
 The point group associated with its full space group is S_2 .


 Subroutine INISYM returns: Found  2 space group operations
 (whereof  1 operations are pure point group operations),
 and found     4 'primitive' translations


----------------------------------------------------------------------------------------

                                     Primitive cell                                     

  volume of cell :      11.8420

  direct lattice vectors                    reciprocal lattice vectors
    -1.281256062 -1.392520177 -2.343042462     0.589741276 -0.671948405 -0.349932998
    -3.299013386 -2.680269500 -0.413112081    -0.466808175  0.178479504  0.149192556
    -0.447556249  0.892494362 -2.468051204    -0.481734234  0.608039089 -0.097941799

  length of vectors
     3.011739949  4.270596622  2.662354133     0.960084650  0.521558458  0.781902808

  position of ions in fractional coordinates (direct lattice)
     0.125000000  0.125000000  0.500000000
     0.375000000  0.375000000  0.500000000

  ion indices of the primitive-cell ions
   primitive index   ion index
                 1           1
                 2           2

----------------------------------------------------------------------------------------

 
 
 KPOINTS: KPOINTS created by Atomic Simulation Env

Automatic generation of k-mesh.
 Grid dimensions read from file:
 generate k-points for:    4    4    4

 Generating k-lattice:

  Cartesian coordinates                     Fractional coordinates (reciprocal lattice)
     0.056485265  0.031385010 -0.049540864     0.250000000 -0.000000000  0.000000000
     0.044850142 -0.014321274  0.037335280     0.000000000  0.250000000  0.000000000
     0.015366638 -0.061683613 -0.025092555     0.000000000 -0.000000000  0.250000000

  Length of vectors
     0.081424205  0.060087912  0.068342066

  Shift w.r.t. Gamma in fractional coordinates (k-lattice)
     0.500000000  0.500000000  0.500000000

 
 Subroutine IBZKPT returns following result:
 ===========================================
 
 Found     32 irreducible k-points:
 
 Following reciprocal coordinates:
            Coordinates               Weight
  0.125000  0.125000  0.125000      2.000000
  0.375000  0.125000  0.125000      2.000000
 -0.375000  0.125000  0.125000      2.000000
 -0.125000  0.125000  0.125000      2.000000
  0.125000  0.375000  0.125000      2.000000
  0.375000  0.375000  0.125000      2.000000
 -0.375000  0.375000  0.125000      2.000000
 -0.125000  0.375000  0.125000      2.000000
  0.125000 -0.375000  0.125000      2.000000
  0.375000 -0.375000  0.125000      2.000000
 -0.375000 -0.375000  0.125000      2.000000
 -0.125000 -0.375000  0.125000      2.000000
  0.125000 -0.125000  0.125000      2.000000
  0.375000 -0.125000  0.125000      2.000000
 -0.375000 -0.125000  0.125000      2.000000
 -0.125000 -0.125000  0.125000      2.000000
  0.125000  0.125000  0.375000      2.000000
  0.375000  0.125000  0.375000      2.000000
 -0.375000  0.125000  0.375000      2.000000
 -0.125000  0.125000  0.375000      2.000000
  0.125000  0.375000  0.375000      2.000000
  0.375000  0.375000  0.375000      2.000000
 -0.375000  0.375000  0.375000      2.000000
 -0.125000  0.375000  0.375000      2.000000
  0.125000 -0.375000  0.375000      2.000000
  0.375000 -0.375000  0.375000      2.000000
 -0.375000 -0.375000  0.375000      2.000000
 -0.125000 -0.375000  0.375000      2.000000
  0.125000 -0.125000  0.375000      2.000000
  0.375000 -0.125000  0.375000      2.000000
 -0.375000 -0.125000  0.375000      2.000000
 -0.125000 -0.125000  0.375000      2.000000
 
 Following cartesian coordinates:
            Coordinates               Weight
  0.058351 -0.022310 -0.018649      2.000000
  0.114836  0.009075 -0.068190      2.000000
 -0.054620 -0.085080  0.080433      2.000000
  0.001866 -0.053695  0.030892      2.000000
  0.103201 -0.036631  0.018686      2.000000
  0.159686 -0.005246 -0.030855      2.000000
 -0.009769 -0.099401  0.117768      2.000000
  0.046716 -0.068016  0.068227      2.000000
 -0.031349  0.006333 -0.093320      2.000000
  0.025136  0.037718 -0.142860      2.000000
 -0.144320 -0.056437  0.005762      2.000000
 -0.087835 -0.025052 -0.043779      2.000000
  0.013501 -0.007989 -0.055984      2.000000
  0.069986  0.023396 -0.105525      2.000000
 -0.099470 -0.070759  0.043097      2.000000
 -0.042984 -0.039374 -0.006443      2.000000
  0.073718 -0.083994 -0.043742      2.000000
  0.130203 -0.052609 -0.093282      2.000000
 -0.039253 -0.146764  0.055340      2.000000
  0.017232 -0.115379  0.005799      2.000000
  0.118568 -0.098315 -0.006406      2.000000
  0.175053 -0.066930 -0.055947      2.000000
  0.005597 -0.161085  0.092675      2.000000
  0.062083 -0.129700  0.043135      2.000000
 -0.015983 -0.055351 -0.118412      2.000000
  0.040503 -0.023966 -0.167953      2.000000
 -0.128953 -0.118121 -0.019330      2.000000
 -0.072468 -0.086736 -0.068871      2.000000
  0.028868 -0.069672 -0.081077      2.000000
  0.085353 -0.038287 -0.130618      2.000000
 -0.084103 -0.132442  0.018005      2.000000
 -0.027618 -0.101057 -0.031536      2.000000
 


--------------------------------------------------------------------------------------------------------




 Dimension of arrays:
   k-points           NKPTS =     32   k-points in BZ     NKDIM =     32   number of bands    NBANDS=     22
   number of dos      NEDOS =    301   number of ions     NIONS =      8
   non local maximal  LDIM  =      4   non local SUM 2l+1 LMDIM =      8
   total plane-waves  NPLWV =  30240
   max r-space proj   IRMAX =      1   max aug-charges    IRDMAX=   7732
   dimension x,y,z NGX =    28 NGY =   36 NGZ =   30
   dimension x,y,z NGXF=    56 NGYF=   72 NGZF=   60
   support grid    NGXF=    56 NGYF=   72 NGZF=   60
   ions per type =               8
   NGX,Y,Z   is equivalent  to a cutoff of  15.14, 14.20, 13.47 a.u.
   NGXF,Y,Z  is equivalent  to a cutoff of  30.28, 28.40, 26.93 a.u.

 SYSTEM =  unknown system                          
 POSCAR =  C                                       

 Startparameter for this run:
   NWRITE =      2    write-flag & timer
   PREC   = accura    normal or accurate (medium, high low for compatibility)
   ISTART =      0    job   : 0-new  1-cont  2-samecut
   ICHARG =      2    charge: 1-file 2-atom 10-const
   ISPIN  =      1    spin polarized calculation?
   LNONCOLLINEAR =      F non collinear calculations
   LSORBIT =      F    spin-orbit coupling
   INIWAV =      1    electr: 0-lowe 1-rand  2-diag
   LASPH  =      F    aspherical Exc in radial PAW
 Electronic Relaxation 1
   ENCUT  =  600.0 eV  44.10 Ry    6.64 a.u.   6.14  8.42  7.40*2*pi/ulx,y,z
   ENINI  =  600.0     initial cutoff
   ENAUG  =  644.9 eV  augmentation charge cutoff
   NELM   =     60;   NELMIN=  2; NELMDL= -5     # of ELM steps 
   EDIFF  = 0.1E-05   stopping-criterion for ELM
   LREAL  =      F    real-space projection
   NLSPLINE    = F    spline interpolate recip. space projectors
   LCOMPAT=      F    compatible to vasp.4.4
   GGA_COMPAT  = T    GGA compatible to vasp.4.4-vasp.4.6
   LMAXPAW     = -100 max onsite density
   LMAXMIX     =    2 max onsite mixed and CHGCAR
   VOSKOWN=      0    Vosko Wilk Nusair interpolation
   ROPT   =    0.00000
 Ionic relaxation
   EDIFFG = 0.1E-04   stopping-criterion for IOM
   NSW    =    300    number of steps for IOM
   NBLOCK =      1;   KBLOCK =    300    inner block; outer block 
   IBRION =      2    ionic relax: 0-MD 1-quasi-New 2-CG
   NFREE  =      1    steps in history (QN), initial steepest desc. (CG)
   ISIF   =      2    stress and relaxation
   IWAVPR =     11    prediction:  0-non 1-charg 2-wave 3-comb
   ISYM   =      2    0-nonsym 1-usesym 2-fastsym
   LCORR  =      T    Harris-Foulkes like correction to forces

   POTIM  = 0.5000    time-step for ionic-motion
   TEIN   =    0.0    initial temperature
   TEBEG  =    0.0;   TEEND  =   0.0 temperature during run
   SMASS  =  -3.00    Nose mass-parameter (am)
   estimated Nose-frequenzy (Omega)   =  0.10E-29 period in steps = 0.13E+47 mass=  -0.216E-27a.u.
   SCALEE = 1.0000    scale energy and forces
   NPACO  =    256;   APACO  = 16.0  distance and # of slots for P.C.
   PSTRESS=    0.0 pullay stress

  Mass of Ions in am
   POMASS =  12.01
  Ionic Valenz
   ZVAL   =   4.00
  Atomic Wigner-Seitz radii
   RWIGS  =  -1.00
  virtual crystal weights 
   VCA    =   1.00
   NELECT =      32.0000    total number of electrons
   NUPDOWN=      -1.0000    fix difference up-down

 DOS related values:
   EMIN   =  10.00;   EMAX   =-10.00  energy-range for DOS
   EFERMI =   0.00
   ISMEAR =     0;   SIGMA  =   0.10  broadening in eV -4-tet -1-fermi 0-gaus

 Electronic relaxation 2 (details)
   IALGO  =     38    algorithm
   LDIAG  =      T    sub-space diagonalisation (order eigenvalues)
   LSUBROT=      F    optimize rotation matrix (better conditioning)
   TURBO    =      0    0=normal 1=particle mesh
   IRESTART =      0    0=no restart 2=restart with 2 vectors
   NREBOOT  =      0    no. of reboots
   NMIN     =      0    reboot dimension
   EREF     =   0.00    reference energy to select bands
   IMIX   =      4    mixing-type and parameters
     AMIX     =   0.40;   BMIX     =  1.00
     AMIX_MAG =   1.60;   BMIX_MAG =  1.00
     AMIN     =   0.10
     WC   =   100.;   INIMIX=   1;  MIXPRE=   1;  MAXMIX= -45

 Intra band minimization:
   WEIMIN = 0.0010     energy-eigenvalue tresh-hold
   EBREAK =  0.11E-07  absolut break condition
   DEPER  =   0.30     relativ break condition  

   TIME   =   0.40     timestep for ELM

  volume/ion in A,a.u.               =       5.92        39.96
  Fermi-wavevector in a.u.,A,eV,Ry     =   1.436468  2.714531 28.074806  2.063440
  Thomas-Fermi vector in A             =   2.555653
 
 Write flags
   LWAVE        =      F    write WAVECAR
   LDOWNSAMPLE  =      F    k-point downsampling of WAVECAR
   LCHARG       =      F    write CHGCAR
   LVTOT        =      F    write LOCPOT, total local potential
   LVHAR        =      F    write LOCPOT, Hartree potential only
   LELF         =      F    write electronic localiz. function (ELF)
   LORBIT       =      0    0 simple, 1 ext, 2 COOP (PROOUT), +10 PAW based schemes


 Dipole corrections
   LMONO  =      F    monopole corrections only (constant potential shift)
   LDIPOL =      F    correct potential (dipole corrections)
   IDIPOL =      0    1-x, 2-y, 3-z, 4-all directions 
   EPSILON=  1.0000000 bulk dielectric constant

 Exchange correlation treatment:
   GGA     =    --    GGA type
   LEXCH   =     8    internal setting for exchange type
   VOSKOWN=      0    Vosko Wilk Nusair interpolation
   LHFCALC =     F    Hartree Fock is set to
   LHFONE  =     F    Hartree Fock one center treatment
   AEXX    =    0.0000 exact exchange contribution

 Linear response parameters
   LEPSILON=     F    determine dielectric tensor
   LRPA    =     F    only Hartree local field effects (RPA)
   LNABLA  =     F    use nabla operator in PAW spheres
   LVEL    =     F    velocity operator in full k-point grid
   LINTERFAST=   F  fast interpolation
   KINTER  =     0    interpolate to denser k-point grid
   CSHIFT  =0.1000    complex shift for real part using Kramers Kronig
   OMEGAMAX=  -1.0    maximum frequency
   DEG_THRESHOLD= 0.2000000E-02 threshold for treating states as degnerate
   RTIME   =   -0.100 relaxation time in fs
  (WPLASMAI=    0.000 imaginary part of plasma frequency in eV, 0.658/RTIME)
   DFIELD  = 0.0000000 0.0000000 0.0000000 field for delta impulse in time
 
 Orbital magnetization related:
   ORBITALMAG=     F  switch on orbital magnetization
   LCHIMAG   =     F  perturbation theory with respect to B field
   DQ        =  0.001000  dq finite difference perturbation B field
   LLRAUG    =     F  two centre corrections for induced B field



--------------------------------------------------------------------------------------------------------


 conjugate gradient relaxation of ions
   using selective dynamics as specified on POSCAR
 charge density and potential will be updated during run
 non-spin polarized calculation
 Variant of blocked Davidson
 Davidson routine will perform the subspace rotation
 perform sub-space diagonalisation
    after iterative eigenvector-optimisation
 modified Broyden-mixing scheme, WC =      100.0
 initial mixing is a Kerker type mixing with AMIX =  0.4000 and BMIX =      1.0000
 Hartree-type preconditioning will be used
 using additional bands            6
 reciprocal scheme for non local part
 use partial core corrections
 calculate Harris-corrections to forces 
   (improved forces if not selfconsistent)
 use gradient corrections 
 use of overlap-Matrix (Vanderbilt PP)
 Gauss-broadening in eV      SIGMA  =   0.10


--------------------------------------------------------------------------------------------------------


  energy-cutoff  :      600.00
  volume of cell :       47.37
      direct lattice vectors                 reciprocal lattice vectors
     2.017757324  1.287749323 -1.929930381     0.225941058  0.125540040 -0.198163455
     2.912869823 -0.497239401  3.006172028     0.179400566 -0.057285094  0.149341120
     0.350357698 -3.282279756 -1.679912896     0.061466551 -0.246734451 -0.100370221

  length of vectors
     3.074780352  4.215344338  3.703811314     0.325696820  0.240351649  0.273368263


 
 k-points in units of 2pi/SCALE and weight: KPOINTS created by Atomic Simulation Env
   0.05835102 -0.02230994 -0.01864907       0.031
   0.11483629  0.00907507 -0.06818993       0.031
  -0.05461951 -0.08507996  0.08043266       0.031
   0.00186576 -0.05369495  0.03089179       0.031
   0.10320116 -0.03663121  0.01868621       0.031
   0.15968643 -0.00524620 -0.03085465       0.031
  -0.00976937 -0.09940123  0.11776794       0.031
   0.04671590 -0.06801622  0.06822707       0.031
  -0.03134926  0.00633261 -0.09331963       0.031
   0.02513600  0.03771762 -0.14286049       0.031
  -0.14431979 -0.05643741  0.00576210       0.031
  -0.08783453 -0.02505240 -0.04377877       0.031
   0.01350088 -0.00798866 -0.05598435       0.031
   0.06998614  0.02339635 -0.10552521       0.031
  -0.09946965 -0.07075868  0.04309738       0.031
  -0.04298438 -0.03937367 -0.00644349       0.031
   0.07371766 -0.08399355 -0.04374162       0.031
   0.13020292 -0.05260854 -0.09328249       0.031
  -0.03925287 -0.14676357  0.05534010       0.031
   0.01723239 -0.11537856  0.00579924       0.031
   0.11856780 -0.09831482 -0.00640634       0.031
   0.17505307 -0.06692981 -0.05594721       0.031
   0.00559727 -0.16108484  0.09267538       0.031
   0.06208254 -0.12969983  0.04313452       0.031
  -0.01598262 -0.05535100 -0.11841218       0.031
   0.04050264 -0.02396599 -0.16795305       0.031
  -0.12895315 -0.11812102 -0.01933046       0.031
  -0.07246789 -0.08673601 -0.06887132       0.031
   0.02886752 -0.06967228 -0.08107690       0.031
   0.08535278 -0.03828727 -0.13061777       0.031
  -0.08410301 -0.13244230  0.01800482       0.031
  -0.02761775 -0.10105729 -0.03153604       0.031
 
 k-points in reciprocal lattice and weights: KPOINTS created by Atomic Simulation Env
   0.12500000  0.12500000  0.12500000       0.031
   0.37500000  0.12500000  0.12500000       0.031
  -0.37500000  0.12500000  0.12500000       0.031
  -0.12500000  0.12500000  0.12500000       0.031
   0.12500000  0.37500000  0.12500000       0.031
   0.37500000  0.37500000  0.12500000       0.031
  -0.37500000  0.37500000  0.12500000       0.031
  -0.12500000  0.37500000  0.12500000       0.031
   0.12500000 -0.37500000  0.12500000       0.031
   0.37500000 -0.37500000  0.12500000       0.031
  -0.37500000 -0.37500000  0.12500000       0.031
  -0.12500000 -0.37500000  0.12500000       0.031
   0.12500000 -0.12500000  0.12500000       0.031
   0.37500000 -0.12500000  0.12500000       0.031
  -0.37500000 -0.12500000  0.12500000       0.031
  -0.12500000 -0.12500000  0.12500000       0.031
   0.12500000  0.12500000  0.37500000       0.031
   0.37500000  0.12500000  0.37500000       0.031
  -0.37500000  0.12500000  0.37500000       0.031
  -0.12500000  0.12500000  0.37500000       0.031
   0.12500000  0.37500000  0.37500000       0.031
   0.37500000  0.37500000  0.37500000       0.031
  -0.37500000  0.37500000  0.37500000       0.031
  -0.12500000  0.37500000  0.37500000       0.031
   0.12500000 -0.37500000  0.37500000       0.031
   0.37500000 -0.37500000  0.37500000       0.031
  -0.37500000 -0.37500000  0.37500000       0.031
  -0.12500000 -0.37500000  0.37500000       0.031
   0.12500000 -0.12500000  0.37500000       0.031
   0.37500000 -0.12500000  0.37500000       0.031
  -0.37500000 -0.12500000  0.37500000       0.031
  -0.12500000 -0.12500000  0.37500000       0.031
 
 position of ions in fractional coordinates (direct lattice) 
   0.12500000  0.12500000  0.62500000
   0.37500000  0.37500000  0.87500000
   0.12500000  0.62500000  0.12500000
   0.37500000  0.87500000  0.37500000
   0.62500000  0.12500000  0.12500000
   0.87500000  0.37500000  0.37500000
   0.62500000  0.62500000  0.62500000
   0.87500000  0.87500000  0.87500000
 
 position of ions in cartesian coordinates  (Angst):
   0.83530195 -1.95261111 -0.91541535
   2.15554817 -2.57555357 -1.06633317
   2.11655802 -0.56009093  1.42762711
   3.43680423 -1.18303339  1.27670930
   1.66900177  0.33240343 -1.04042410
   2.98924798 -0.29053903 -1.19134191
   3.30061553 -1.55735615 -0.37729453
   4.62086174 -2.18029861 -0.52821234
 


--------------------------------------------------------------------------------------------------------


 k-point   1 :   0.1250 0.1250 0.1250  plane waves:    1587
 k-point   2 :   0.3750 0.1250 0.1250  plane waves:    1578
 k-point   3 :  -0.3750 0.1250 0.1250  plane waves:    1583
 k-point   4 :  -0.1250 0.1250 0.1250  plane waves:    1581
 k-point   5 :   0.1250 0.3750 0.1250  plane waves:    1578
 k-point   6 :   0.3750 0.3750 0.1250  plane waves:    1577
 k-point   7 :  -0.3750 0.3750 0.1250  plane waves:    1590
 k-point   8 :  -0.1250 0.3750 0.1250  plane waves:    1574
 k-point   9 :   0.1250-0.3750 0.1250  plane waves:    1579
 k-point  10 :   0.3750-0.3750 0.1250  plane waves:    1582
 k-point  11 :  -0.3750-0.3750 0.1250  plane waves:    1590
 k-point  12 :  -0.1250-0.3750 0.1250  plane waves:    1582
 k-point  13 :   0.1250-0.1250 0.1250  plane waves:    1587
 k-point  14 :   0.3750-0.1250 0.1250  plane waves:    1584
 k-point  15 :  -0.3750-0.1250 0.1250  plane waves:    1592
 k-point  16 :  -0.1250-0.1250 0.1250  plane waves:    1584
 k-point  17 :   0.1250 0.1250 0.3750  plane waves:    1569
 k-point  18 :   0.3750 0.1250 0.3750  plane waves:    1581
 k-point  19 :  -0.3750 0.1250 0.3750  plane waves:    1578
 k-point  20 :  -0.1250 0.1250 0.3750  plane waves:    1580
 k-point  21 :   0.1250 0.3750 0.3750  plane waves:    1566
 k-point  22 :   0.3750 0.3750 0.3750  plane waves:    1574
 k-point  23 :  -0.3750 0.3750 0.3750  plane waves:    1574
 k-point  24 :  -0.1250 0.3750 0.3750  plane waves:    1574
 k-point  25 :   0.1250-0.3750 0.3750  plane waves:    1571
 k-point  26 :   0.3750-0.3750 0.3750  plane waves:    1574
 k-point  27 :  -0.3750-0.3750 0.3750  plane waves:    1591
 k-point  28 :  -0.1250-0.3750 0.3750  plane waves:    1577
 k-point  29 :   0.1250-0.1250 0.3750  plane waves:    1569
 k-point  30 :   0.3750-0.1250 0.3750  plane waves:    1588
 k-point  31 :  -0.3750-0.1250 0.3750  plane waves:    1591
 k-point  32 :  -0.1250-0.1250 0.3750  plane waves:    1571

 maximum and minimum number of plane-waves per node :      1592     1566

 maximum number of plane-waves:      1592
 maximum index in each direction: 
   IXMAX=    6   IYMAX=    8   IZMAX=    7
   IXMIN=   -6   IYMIN=   -8   IZMIN=   -7


 serial   3D FFT for wavefunctions

 total amount of memory used by VASP MPI-rank0    54295. kBytes
=======================================================================

   base      :      30000. kBytes
   nonl-proj :       3464. kBytes
   fftplans  :       4321. kBytes
   grid      :       7160. kBytes
   one-center:         24. kBytes
   wavefun   :       9326. kBytes
 
     INWAV:  cpu time    0.0000: real time    0.0000
 Broyden mixing: mesh for mixing (old mesh)
   NGX = 13   NGY = 17   NGZ = 15
  (NGX  = 56   NGY  = 72   NGZ  = 60)
  gives a total of   3315 points

 initial charge density was supplied:
 charge density of overlapping atoms calculated
 number of electron      32.0000000 magnetization 
 keeping initial charge density in first step


--------------------------------------------------------------------------------------------------------


 Maximum index for augmentation-charges         3638 (set IRDMAX)


--------------------------------------------------------------------------------------------------------


 First call to EWALD:  gamma=   0.490
 Maximum number of real-space cells 3x 2x 3
 Maximum number of reciprocal cells 2x 3x 3

    FEWALD:  cpu time    0.0007: real time    0.0007


--------------------------------------- Iteration      1(   1)  ---------------------------------------


    POTLOK:  cpu time    0.0502: real time    0.0502
    SETDIJ:  cpu time    0.0045: real time    0.0045
     EDDAV:  cpu time    0.5343: real time    0.5345
       DOS:  cpu time    0.0008: real time    0.0008
    --------------------------------------------
      LOOP:  cpu time    0.5897: real time    0.5900

 eigenvalue-minimisations  :  1408
 total energy-change (2. order) : 0.9331088E+02  (-0.1846776E+04)
 number of electron      32.0000000 magnetization 
 augmentation part       32.0000000 magnetization 

 Free energy of the ion-electron system (eV)
  ---------------------------------------------------
  alpha Z        PSCENC =       110.98990814
  Ewald energy   TEWEN  =     -1379.98493319
  -Hartree energ DENC   =       -70.21045982
  -exchange      EXHF   =         0.00000000
  -V(xc)+E(xc)   XCENC  =       108.28603273
  PAW double counting   =       868.17637104     -872.73161751
  entropy T*S    EENTRO =        -0.00510585
  eigenvalues    EBANDS =       151.58838153
  atomic energy  EATOM  =      1177.20230207
  Solvation  Ediel_sol  =         0.00000000
  ---------------------------------------------------
  free energy    TOTEN  =        93.31087913 eV

  energy without entropy =       93.31598498  energy(sigma->0) =       93.31343205


--------------------------------------------------------------------------------------------------------




--------------------------------------- Iteration      1(   2)  ---------------------------------------


     EDDAV:  cpu time    0.6191: real time    0.6191
       DOS:  cpu time    0.0004: real time    0.0004
    --------------------------------------------
      LOOP:  cpu time    0.6195: real time    0.6195

 eigenvalue-minimisations  :  1876
 total energy-change (2. order) :-0.1543784E+03  (-0.1444065E+03)
 number of electron      32.0000000 magnetization 
 augmentation part       32.0000000 magnetization 

 Free energy of the ion-electron system (eV)
  ---------------------------------------------------
  alpha Z        PSCENC =       110.98990814
  Ewald energy   TEWEN  =     -1379.98493319
  -Hartree energ DENC   =       -70.21045982
  -exchange      EXHF   =         0.00000000
  -V(xc)+E(xc)   XCENC  =       108.28603273
  PAW double counting   =       868.17637104     -872.73161751
  entropy T*S    EENTRO =        -0.00262715
  eigenvalues    EBANDS =        -2.79250268
  atomic energy  EATOM  =      1177.20230207
  Solvation  Ediel_sol  =         0.00000000
  ---------------------------------------------------
  free energy    TOTEN  =       -61.06752639 eV

  energy without entropy =      -61.06489923  energy(sigma->0) =      -61.06621281


--------------------------------------------------------------------------------------------------------




--------------------------------------- Iteration      1(   3)  ---------------------------------------


     EDDAV:  cpu time    0.6218: real time    0.6218
       DOS:  cpu time    0.0005: real time    0.0005
    --------------------------------------------
      LOOP:  cpu time    0.6222: real time    0.6222

 eigenvalue-minimisations  :  1816
 total energy-change (2. order) :-0.6462500E+01  (-0.6344063E+01)
 number of electron      32.0000000 magnetization 
 augmentation part       32.0000000 magnetization 

 Free energy of the ion-electron system (eV)
  ---------------------------------------------------
  alpha Z        PSCENC =       110.98990814
  Ewald energy   TEWEN  =     -1379.98493319
  -Hartree energ DENC   =       -70.21045982
  -exchange      EXHF   =         0.00000000
  -V(xc)+E(xc)   XCENC  =       108.28603273
  PAW double counting   =       868.17637104     -872.73161751
  entropy T*S    EENTRO =        -0.00630829
  eigenvalues    EBANDS =        -9.25132165
  atomic energy  EATOM  =      1177.20230207
  Solvation  Ediel_sol  =         0.00000000
  ---------------------------------------------------
  free energy    TOTEN  =       -67.53002649 eV

  energy without entropy =      -67.52371820  energy(sigma->0) =      -67.52687234


--------------------------------------------------------------------------------------------------------




--------------------------------------- Iteration      1(   4)  ---------------------------------------


     EDDAV:  cpu time    0.7910: real time    0.7911
       DOS:  cpu time    0.0007: real time    0.0007
    --------------------------------------------
      LOOP:  cpu time    0.7917: real time    0.7918

 eigenvalue-minimisations  :  1846
 total energy-change (2. order) :-0.9958012E-01  (-0.9928264E-01)
 number of electron      32.0000000 magnetization 
 augmentation part       32.0000000 magnetization 

 Free energy of the ion-electron system (eV)
  ---------------------------------------------------
  alpha Z        PSCENC =       110.98990814
  Ewald energy   TEWEN  =     -1379.98493319
  -Hartree energ DENC   =       -70.21045982
  -exchange      EXHF   =         0.00000000
  -V(xc)+E(xc)   XCENC  =       108.28603273
  PAW double counting   =       868.17637104     -872.73161751
  entropy T*S    EENTRO =        -0.00613886
  eigenvalues    EBANDS =        -9.35107120
  atomic energy  EATOM  =      1177.20230207
  Solvation  Ediel_sol  =         0.00000000
  ---------------------------------------------------
  free energy    TOTEN  =       -67.62960661 eV

  energy without entropy =      -67.62346775  energy(sigma->0) =      -67.62653718


--------------------------------------------------------------------------------------------------------




--------------------------------------- Iteration      1(   5)  ---------------------------------------


     EDDAV:  cpu time    0.9426: real time    0.9426
       DOS:  cpu time    0.0006: real time    0.0006
    CHARGE:  cpu time    0.0676: real time    0.0676
    MIXING:  cpu time    0.0015: real time    0.0015
    --------------------------------------------
      LOOP:  cpu time    1.0123: real time    1.0124

 eigenvalue-minimisations  :  1810
 total energy-change (2. order) :-0.2119955E-02  (-0.2118774E-02)
 number of electron      31.9999999 magnetization 
 augmentation part        0.7322229 magnetization 

 Broyden mixing:
  rms(total) = 0.10216E+01    rms(broyden)= 0.10215E+01
  rms(prec ) = 0.19027E+01
  weight for this iteration     100.00

 Free energy of the ion-electron system (eV)
  ---------------------------------------------------
  alpha Z        PSCENC =       110.98990814
  Ewald energy   TEWEN  =     -1379.98493319
  -Hartree energ DENC   =       -70.21045982
  -exchange      EXHF   =         0.00000000
  -V(xc)+E(xc)   XCENC  =       108.28603273
  PAW double counting   =       868.17637104     -872.73161751
  entropy T*S    EENTRO =        -0.00612688
  eigenvalues    EBANDS =        -9.35320314
  atomic energy  EATOM  =      1177.20230207
  Solvation  Ediel_sol  =         0.00000000
  ---------------------------------------------------
  free energy    TOTEN  =       -67.63172657 eV

  energy without entropy =      -67.62559969  energy(sigma->0) =      -67.62866313


--------------------------------------------------------------------------------------------------------




--------------------------------------- Iteration      1(   6)  ---------------------------------------


    POTLOK:  cpu time    0.0394: real time    0.0394
    SETDIJ:  cpu time    0.0034: real time    0.0034
     EDDAV:  cpu time    0.7617: real time    0.7620
       DOS:  cpu time    0.0005: real time    0.0005
    CHARGE:  cpu time    0.0507: real time    0.0507
    MIXING:  cpu time    0.0010: real time    0.0010
    --------------------------------------------
      LOOP:  cpu time    0.8566: real time    0.8568

 eigenvalue-minimisations  :  1696
 total energy-change (2. order) : 0.1570027E+01  (-0.1137411E+00)
 number of electron      31.9999999 magnetization 
 augmentation part        0.7095021 magnetization 

 Broyden mixing:
  rms(total) = 0.59698E+00    rms(broyden)= 0.59698E+00
  rms(prec ) = 0.10300E+01
  weight for this iteration     100.00

 eigenvalues of (default mixing * dielectric matrix)
  average eigenvalue GAMMA=   2.2717
  2.2717

 Free energy of the ion-electron system (eV)
  ---------------------------------------------------
  alpha Z        PSCENC =       110.98990814
  Ewald energy   TEWEN  =     -1379.98493319
  -Hartree energ DENC   =       -83.65102826
  -exchange      EXHF   =         0.00000000
  -V(xc)+E(xc)   XCENC  =       109.48255107
  PAW double counting   =      1425.51568995    -1430.48903729
  entropy T*S    EENTRO =        -0.00078272
  eigenvalues    EBANDS =         4.87363067
  atomic energy  EATOM  =      1177.20230207
  Solvation  Ediel_sol  =         0.00000000
  ---------------------------------------------------
  free energy    TOTEN  =       -66.06169957 eV

  energy without entropy =      -66.06091686  energy(sigma->0) =      -66.06130821


--------------------------------------------------------------------------------------------------------




--------------------------------------- Iteration      1(   7)  ---------------------------------------


    POTLOK:  cpu time    0.0303: real time    0.0303
    SETDIJ:  cpu time    0.0027: real time    0.0027
     EDDAV:  cpu time    0.5754: real time    0.5754
       DOS:  cpu time    0.0005: real time    0.0005
    CHARGE:  cpu time    0.0472: real time    0.0472
    MIXING:  cpu time    0.0009: real time    0.0009
    --------------------------------------------
      LOOP:  cpu time    0.6570: real time    0.6570

 eigenvalue-minimisations  :  1660
 total energy-change (2. order) : 0.4945571E+00  (-0.1272752E+00)
 number of electron      31.9999999 magnetization 
 augmentation part        0.6889313 magnetization 

 Broyden mixing:
  rms(total) = 0.13741E+00    rms(broyden)= 0.13740E+00
  rms(prec ) = 0.16207E+00
  weight for this iteration     100.00

 eigenvalues of (default mixing * dielectric matrix)
  average eigenvalue GAMMA=   2.2807
  1.8892  2.6721

 Free energy of the ion-electron system (eV)
  ---------------------------------------------------
  alpha Z        PSCENC =       110.98990814
  Ewald energy   TEWEN  =     -1379.98493319
  -Hartree energ DENC   =       -99.80830174
  -exchange      EXHF   =         0.00000000
  -V(xc)+E(xc)   XCENC  =       110.96465666
  PAW double counting   =      2402.12036600    -2407.47400973
  entropy T*S    EENTRO =        -0.00444484
  eigenvalues    EBANDS =        20.42731420
  atomic energy  EATOM  =      1177.20230207
  Solvation  Ediel_sol  =         0.00000000
  ---------------------------------------------------
  free energy    TOTEN  =       -65.56714243 eV

  energy without entropy =      -65.56269759  energy(sigma->0) =      -65.56492001


--------------------------------------------------------------------------------------------------------




--------------------------------------- Iteration      1(   8)  ---------------------------------------


    POTLOK:  cpu time    0.0287: real time    0.0287
    SETDIJ:  cpu time    0.0024: real time    0.0024
     EDDAV:  cpu time    0.6010: real time    0.6011
       DOS:  cpu time    0.0004: real time    0.0004
    CHARGE:  cpu time    0.0472: real time    0.0472
    MIXING:  cpu time    0.0009: real time    0.0009
    --------------------------------------------
      LOOP:  cpu time    0.6805: real time    0.6807

 eigenvalue-minimisations  :  1766
 total energy-change (2. order) :-0.6783971E-02  (-0.5246846E-02)
 number of electron      31.9999999 magnetization 
 augmentation part        0.6886596 magnetization 

 Broyden mixing:
  rms(total) = 0.14443E-01    rms(broyden)= 0.14440E-01
  rms(prec ) = 0.22180E-01
  weight for this iteration     100.00

 eigenvalues of (default mixing * dielectric matrix)
  average eigenvalue GAMMA=   1.8417
  1.0734  1.9990  2.4526

 Free energy of the ion-electron system (eV)
  ---------------------------------------------------
  alpha Z        PSCENC =       110.98990814
  Ewald energy   TEWEN  =     -1379.98493319
  -Hartree energ DENC   =      -100.19668436
  -exchange      EXHF   =         0.00000000
  -V(xc)+E(xc)   XCENC  =       111.02565378
  PAW double counting   =      2708.18994253    -2713.45429970
  entropy T*S    EENTRO =        -0.00404346
  eigenvalues    EBANDS =        20.65822780
  atomic energy  EATOM  =      1177.20230207
  Solvation  Ediel_sol  =         0.00000000
  ---------------------------------------------------
  free energy    TOTEN  =       -65.57392640 eV

  energy without entropy =      -65.56988294  energy(sigma->0) =      -65.57190467


--------------------------------------------------------------------------------------------------------




--------------------------------------- Iteration      1(   9)  ---------------------------------------


    POTLOK:  cpu time    0.0289: real time    0.0289
    SETDIJ:  cpu time    0.0023: real time    0.0023
     EDDAV:  cpu time    0.7552: real time    0.7563
       DOS:  cpu time    0.0006: real time    0.0006
    CHARGE:  cpu time    0.0675: real time    0.0675
    MIXING:  cpu time    0.0012: real time    0.0012
    --------------------------------------------
      LOOP:  cpu time    0.8557: real time    0.8569

 eigenvalue-minimisations  :  1756
 total energy-change (2. order) : 0.8334521E-04  (-0.8701861E-04)
 number of electron      31.9999999 magnetization 
 augmentation part        0.6889043 magnetization 

 Broyden mixing:
  rms(total) = 0.63329E-02    rms(broyden)= 0.63326E-02
  rms(prec ) = 0.89069E-02
  weight for this iteration     100.00

 eigenvalues of (default mixing * dielectric matrix)
  average eigenvalue GAMMA=   1.9072
  1.0167  2.4576  1.9208  2.2336

 Free energy of the ion-electron system (eV)
  ---------------------------------------------------
  alpha Z        PSCENC =       110.98990814
  Ewald energy   TEWEN  =     -1379.98493319
  -Hartree energ DENC   =       -99.92819078
  -exchange      EXHF   =         0.00000000
  -V(xc)+E(xc)   XCENC  =       111.00209311
  PAW double counting   =      2694.41657282    -2699.66890777
  entropy T*S    EENTRO =        -0.00386478
  eigenvalues    EBANDS =        20.40117733
  atomic energy  EATOM  =      1177.20230207
  Solvation  Ediel_sol  =         0.00000000
  ---------------------------------------------------
  free energy    TOTEN  =       -65.57384306 eV

  energy without entropy =      -65.56997828  energy(sigma->0) =      -65.57191067


--------------------------------------------------------------------------------------------------------




--------------------------------------- Iteration      1(  10)  ---------------------------------------


    POTLOK:  cpu time    0.0389: real time    0.0389
    SETDIJ:  cpu time    0.0032: real time    0.0032
     EDDAV:  cpu time    0.8265: real time    0.8265
       DOS:  cpu time    0.0007: real time    0.0007
    CHARGE:  cpu time    0.0709: real time    0.0709
    MIXING:  cpu time    0.0013: real time    0.0013
    --------------------------------------------
      LOOP:  cpu time    0.9416: real time    0.9416

 eigenvalue-minimisations  :  1708
 total energy-change (2. order) :-0.6286370E-04  (-0.6622065E-05)
 number of electron      31.9999999 magnetization 
 augmentation part        0.6889412 magnetization 

 Broyden mixing:
  rms(total) = 0.75513E-03    rms(broyden)= 0.75504E-03
  rms(prec ) = 0.12689E-02
  weight for this iteration     100.00

 eigenvalues of (default mixing * dielectric matrix)
  average eigenvalue GAMMA=   1.8355
  2.6038  2.5077  1.9705  1.0478  1.0478

 Free energy of the ion-electron system (eV)
  ---------------------------------------------------
  alpha Z        PSCENC =       110.98990814
  Ewald energy   TEWEN  =     -1379.98493319
  -Hartree energ DENC   =       -99.97127043
  -exchange      EXHF   =         0.00000000
  -V(xc)+E(xc)   XCENC  =       111.00698256
  PAW double counting   =      2690.95860212    -2696.20784569
  entropy T*S    EENTRO =        -0.00383542
  eigenvalues    EBANDS =        20.43618393
  atomic energy  EATOM  =      1177.20230207
  Solvation  Ediel_sol  =         0.00000000
  ---------------------------------------------------
  free energy    TOTEN  =       -65.57390592 eV

  energy without entropy =      -65.57007050  energy(sigma->0) =      -65.57198821


--------------------------------------------------------------------------------------------------------




--------------------------------------- Iteration      1(  11)  ---------------------------------------


    POTLOK:  cpu time    0.0406: real time    0.0406
    SETDIJ:  cpu time    0.0034: real time    0.0034
     EDDAV:  cpu time    0.7076: real time    0.7077
       DOS:  cpu time    0.0005: real time    0.0005
    CHARGE:  cpu time    0.0504: real time    0.0504
    MIXING:  cpu time    0.0010: real time    0.0010
    --------------------------------------------
      LOOP:  cpu time    0.8035: real time    0.8035

 eigenvalue-minimisations  :  1466
 total energy-change (2. order) :-0.2751560E-05  (-0.2295694E-06)
 number of electron      31.9999999 magnetization 
 augmentation part        0.6889380 magnetization 

 Broyden mixing:
  rms(total) = 0.26556E-03    rms(broyden)= 0.26555E-03
  rms(prec ) = 0.42521E-03
  weight for this iteration     100.00

 eigenvalues of (default mixing * dielectric matrix)
  average eigenvalue GAMMA=   1.9024
  2.6564  2.4511  2.3514  1.9537  0.9929  1.0087

 Free energy of the ion-electron system (eV)
  ---------------------------------------------------
  alpha Z        PSCENC =       110.98990814
  Ewald energy   TEWEN  =     -1379.98493319
  -Hartree energ DENC   =       -99.98365091
  -exchange      EXHF   =         0.00000000
  -V(xc)+E(xc)   XCENC  =       111.00820679
  PAW double counting   =      2690.50510557    -2695.75412663
  entropy T*S    EENTRO =        -0.00383399
  eigenvalues    EBANDS =        20.44711348
  atomic energy  EATOM  =      1177.20230207
  Solvation  Ediel_sol  =         0.00000000
  ---------------------------------------------------
  free energy    TOTEN  =       -65.57390867 eV

  energy without entropy =      -65.57007469  energy(sigma->0) =      -65.57199168


--------------------------------------------------------------------------------------------------------




--------------------------------------- Iteration      1(  12)  ---------------------------------------


    POTLOK:  cpu time    0.0306: real time    0.0306
    SETDIJ:  cpu time    0.0024: real time    0.0024
     EDDAV:  cpu time    0.4723: real time    0.4724
       DOS:  cpu time    0.0004: real time    0.0004
    --------------------------------------------
      LOOP:  cpu time    0.5058: real time    0.5059

 eigenvalue-minimisations  :  1250
 total energy-change (2. order) :-0.8224993E-07  (-0.3923754E-07)
 number of electron      31.9999999 magnetization 
 augmentation part        0.6889380 magnetization 

 Free energy of the ion-electron system (eV)
  ---------------------------------------------------
  alpha Z        PSCENC =       110.98990814
  Ewald energy   TEWEN  =     -1379.98493319
  -Hartree energ DENC   =       -99.98800691
  -exchange      EXHF   =         0.00000000
  -V(xc)+E(xc)   XCENC  =       111.00858814
  PAW double counting   =      2690.48533794    -2695.73439945
  entropy T*S    EENTRO =        -0.00383458
  eigenvalues    EBANDS =        20.45112908
  atomic energy  EATOM  =      1177.20230207
  Solvation  Ediel_sol  =         0.00000000
  ---------------------------------------------------
  free energy    TOTEN  =       -65.57390875 eV

  energy without entropy =      -65.57007418  energy(sigma->0) =      -65.57199146


--------------------------------------------------------------------------------------------------------




 average (electrostatic) potential at core
  the test charge radii are     0.6991
  (the norm of the test charge is              1.0000)
       1 -46.1481       2 -46.1481       3 -46.1481       4 -46.1481       5 -46.1481
       6 -46.1481       7 -46.1481       8 -46.1481
 
 
 
 E-fermi :  10.0716     XC(G=0): -13.1449     alpha+bet :-16.9267

 Fermi energy:        10.0716092927

 k-point     1 :       0.1250    0.1250    0.1250
  band No.  band energies     occupation 
      1     -11.2876      2.00000
      2      -6.7742      2.00000
      3      -5.3801      2.00000
      4      -3.3361      2.00000
      5      -2.8591      2.00000
      6      -0.8629      2.00000
      7       0.6030      2.00000
      8       0.8768      2.00000
      9       2.2309      2.00000
     10       2.9536      2.00000
     11       4.0301      2.00000
     12       4.3191      2.00000
     13       5.6379      2.00000
     14       5.7504      2.00000
     15       8.5844      2.00000
     16       9.5707      2.00000
     17       9.6056      2.00000
     18      13.0413      0.00000
     19      14.1541      0.00000
     20      15.0493      0.00000
     21      15.3960      0.00000
     22      17.1065      0.00000

 k-point     2 :       0.3750    0.1250    0.1250
  band No.  band energies     occupation 
      1      -9.7117      2.00000
      2      -6.9939      2.00000
      3      -5.6999      2.00000
      4      -4.6303      2.00000
      5      -1.6493      2.00000
      6      -1.1492      2.00000
      7       0.2845      2.00000
      8       0.9033      2.00000
      9       1.9842      2.00000
     10       2.3454      2.00000
     11       3.6196      2.00000
     12       4.1276      2.00000
     13       4.5187      2.00000
     14       4.5428      2.00000
     15       5.1648      2.00000
     16       7.1635      2.00000
     17      11.7016      0.00000
     18      12.6275      0.00000
     19      16.5117      0.00000
     20      16.7862      0.00000
     21      18.3095      0.00000
     22      18.8161      0.00000

 k-point     3 :      -0.3750    0.1250    0.1250
  band No.  band energies     occupation 
      1      -9.8577      2.00000
      2      -6.7539      2.00000
      3      -5.2853      2.00000
      4      -4.6352      2.00000
      5      -2.3722      2.00000
      6      -1.3440      2.00000
      7       0.3006      2.00000
      8       0.6774      2.00000
      9       2.0054      2.00000
     10       2.3593      2.00000
     11       3.8685      2.00000
     12       3.9207      2.00000
     13       4.6051      2.00000
     14       5.1478      2.00000
     15       5.3004      2.00000
     16       7.1907      2.00000
     17      11.4164      0.00000
     18      12.6733      0.00000
     19      17.1202      0.00000
     20      17.2606      0.00000
     21      17.7161      0.00000
     22      18.5031      0.00000

 k-point     4 :      -0.1250    0.1250    0.1250
  band No.  band energies     occupation 
      1     -11.3365      2.00000
      2      -6.6105      2.00000
      3      -5.2942      2.00000
      4      -3.1218      2.00000
      5      -3.0404      2.00000
      6      -1.0580      2.00000
      7       0.4597      2.00000
      8       0.6873      2.00000
      9       2.2429      2.00000
     10       2.4194      2.00000
     11       3.7018      2.00000
     12       4.9890      2.00000
     13       5.5198      2.00000
     14       6.5904      2.00000
     15       8.6734      2.00000
     16       9.5103      2.00000
     17       9.7507      1.99999
     18      12.8428      0.00000
     19      14.7560      0.00000
     20      15.1101      0.00000
     21      15.3157      0.00000
     22      16.0888      0.00000

 k-point     5 :       0.1250    0.3750    0.1250
  band No.  band energies     occupation 
      1     -10.3435      2.00000
      2      -9.0975      2.00000
      3      -5.1788      2.00000
      4      -3.1397      2.00000
      5      -1.2164      2.00000
      6       0.2123      2.00000
      7       0.7084      2.00000
      8       1.0876      2.00000
      9       1.2479      2.00000
     10       3.0343      2.00000
     11       3.1989      2.00000
     12       4.2352      2.00000
     13       4.6130      2.00000
     14       6.7847      2.00000
     15       7.2299      2.00000
     16       8.2608      2.00000
     17      11.0003      0.00000
     18      13.9312      0.00000
     19      14.9285      0.00000
     20      16.5610      0.00000
     21      16.7725      0.00000
     22      17.1973      0.00000

 k-point     6 :       0.3750    0.3750    0.1250
  band No.  band energies     occupation 
      1      -8.7319      2.00000
      2      -7.7963      2.00000
      3      -6.3190      2.00000
      4      -5.2888      2.00000
      5      -1.7856      2.00000
      6      -0.2503      2.00000
      7       0.3873      2.00000
      8       1.5261      2.00000
      9       1.9017      2.00000
     10       1.9541      2.00000
     11       2.2334      2.00000
     12       4.5129      2.00000
     13       5.4706      2.00000
     14       5.7386      2.00000
     15       6.3065      2.00000
     16       6.7930      2.00000
     17      12.0206      0.00000
     18      12.3175      0.00000
     19      14.6833      0.00000
     20      16.8138      0.00000
     21      17.7313      0.00000
     22      17.7428      0.00000

 k-point     7 :      -0.3750    0.3750    0.1250
  band No.  band energies     occupation 
      1      -9.0468      2.00000
      2      -7.4554      2.00000
      3      -5.7914      2.00000
      4      -5.6477      2.00000
      5      -1.7080      2.00000
      6      -0.3328      2.00000
      7      -0.0225      2.00000
      8       1.4359      2.00000
      9       1.6843      2.00000
     10       1.9837      2.00000
     11       1.9986      2.00000
     12       4.8186      2.00000
     13       5.2274      2.00000
     14       6.2169      2.00000
     15       6.7891      2.00000
     16       6.8235      2.00000
     17      11.5752      0.00000
     18      12.6796      0.00000
     19      15.3390      0.00000
     20      16.2366      0.00000
     21      17.1349      0.00000
     22      17.9088      0.00000

 k-point     8 :      -0.1250    0.3750    0.1250
  band No.  band energies     occupation 
      1     -10.4484      2.00000
      2      -8.9796      2.00000
      3      -5.1827      2.00000
      4      -2.3944      2.00000
      5      -1.5624      2.00000
      6      -0.3902      2.00000
      7       0.3733      2.00000
      8       1.0223      2.00000
      9       1.3087      2.00000
     10       3.0327      2.00000
     11       3.0663      2.00000
     12       4.3625      2.00000
     13       4.8386      2.00000
     14       7.1642      2.00000
     15       7.4848      2.00000
     16       8.1362      2.00000
     17      10.6932      0.00000
     18      14.5794      0.00000
     19      15.5731      0.00000
     20      16.1313      0.00000
     21      17.1851      0.00000
     22      17.8283      0.00000

 k-point     9 :       0.1250   -0.3750    0.1250
  band No.  band energies     occupation 
      1     -10.6546      2.00000
      2      -8.5800      2.00000
      3      -4.4344      2.00000
      4      -3.8112      2.00000
      5      -2.0093      2.00000
      6      -0.4677      2.00000
      7      -0.3644      2.00000
      8       1.5011      2.00000
      9       2.0268      2.00000
     10       3.5787      2.00000
     11       4.0498      2.00000
     12       4.6272      2.00000
     13       5.7283      2.00000
     14       5.8320      2.00000
     15       6.4362      2.00000
     16       8.5247      2.00000
     17      12.4797      0.00000
     18      13.6614      0.00000
     19      15.1769      0.00000
     20      15.6836      0.00000
     21      16.2915      0.00000
     22      17.0020      0.00000

 k-point    10 :       0.3750   -0.3750    0.1250
  band No.  band energies     occupation 
      1      -9.2234      2.00000
      2      -6.9690      2.00000
      3      -6.2744      2.00000
      4      -5.0652      2.00000
      5      -2.0484      2.00000
      6      -1.2721      2.00000
      7      -0.5630      2.00000
      8       1.4840      2.00000
      9       1.7219      2.00000
     10       3.2407      2.00000
     11       3.2936      2.00000
     12       4.2324      2.00000
     13       4.7344      2.00000
     14       5.0871      2.00000
     15       6.7380      2.00000
     16       8.5597      2.00000
     17      12.8453      0.00000
     18      13.6319      0.00000
     19      14.0553      0.00000
     20      14.3923      0.00000
     21      15.9285      0.00000
     22      17.9802      0.00000

 k-point    11 :      -0.3750   -0.3750    0.1250
  band No.  band energies     occupation 
      1      -9.0345      2.00000
      2      -7.4544      2.00000
      3      -6.5664      2.00000
      4      -4.2207      2.00000
      5      -2.0236      2.00000
      6      -1.1397      2.00000
      7      -0.5015      2.00000
      8       1.1767      2.00000
      9       1.3893      2.00000
     10       3.0710      2.00000
     11       3.5615      2.00000
     12       4.3929      2.00000
     13       4.5476      2.00000
     14       4.7211      2.00000
     15       6.9404      2.00000
     16       8.8174      2.00000
     17      12.8142      0.00000
     18      13.1393      0.00000
     19      13.7181      0.00000
     20      15.3261      0.00000
     21      16.3336      0.00000
     22      17.8199      0.00000

 k-point    12 :      -0.1250   -0.3750    0.1250
  band No.  band energies     occupation 
      1     -10.5910      2.00000
      2      -8.7414      2.00000
      3      -4.5362      2.00000
      4      -3.4300      2.00000
      5      -2.0395      2.00000
      6      -0.7129      2.00000
      7      -0.1830      2.00000
      8       1.8355      2.00000
      9       2.2539      2.00000
     10       3.6319      2.00000
     11       3.6400      2.00000
     12       3.9628      2.00000
     13       5.1806      2.00000
     14       5.9408      2.00000
     15       6.8801      2.00000
     16       8.9357      2.00000
     17      12.5569      0.00000
     18      13.1652      0.00000
     19      15.1817      0.00000
     20      15.5429      0.00000
     21      15.6542      0.00000
     22      17.0696      0.00000

 k-point    13 :       0.1250   -0.1250    0.1250
  band No.  band energies     occupation 
      1     -11.3915      2.00000
      2      -6.0565      2.00000
      3      -4.8929      2.00000
      4      -3.7725      2.00000
      5      -3.6724      2.00000
      6      -1.6739      2.00000
      7      -0.5420      2.00000
      8       2.4665      2.00000
      9       2.7094      2.00000
     10       2.7419      2.00000
     11       4.6098      2.00000
     12       4.8067      2.00000
     13       5.5581      2.00000
     14       6.0826      2.00000
     15       7.3813      2.00000
     16      10.1241      0.45770
     17      10.3195      0.00046
     18      13.3139      0.00000
     19      13.7348      0.00000
     20      15.0950      0.00000
     21      15.5777      0.00000
     22      15.8730      0.00000

 k-point    14 :       0.3750   -0.1250    0.1250
  band No.  band energies     occupation 
      1      -9.8749      2.00000
      2      -6.9602      2.00000
      3      -4.5241      2.00000
      4      -4.2125      2.00000
      5      -3.1619      2.00000
      6      -2.3643      2.00000
      7       0.3587      2.00000
      8       1.7856      2.00000
      9       1.8655      2.00000
     10       2.7014      2.00000
     11       3.1157      2.00000
     12       3.7465      2.00000
     13       3.8560      2.00000
     14       5.4961      2.00000
     15       5.7339      2.00000
     16       8.6919      2.00000
     17      11.2895      0.00000
     18      12.6818      0.00000
     19      16.6378      0.00000
     20      16.8203      0.00000
     21      17.2219      0.00000
     22      17.7523      0.00000

 k-point    15 :      -0.3750   -0.1250    0.1250
  band No.  band energies     occupation 
      1      -9.8520      2.00000
      2      -7.0020      2.00000
      3      -5.2095      2.00000
      4      -3.5541      2.00000
      5      -2.6848      2.00000
      6      -2.3761      2.00000
      7       0.3585      2.00000
      8       1.3110      2.00000
      9       1.4647      2.00000
     10       2.6114      2.00000
     11       3.1013      2.00000
     12       3.7897      2.00000
     13       4.3540      2.00000
     14       5.4924      2.00000
     15       5.7792      2.00000
     16       8.6667      2.00000
     17      11.3336      0.00000
     18      12.5992      0.00000
     19      15.8875      0.00000
     20      16.1924      0.00000
     21      17.2353      0.00000
     22      18.6356      0.00000

 k-point    16 :      -0.1250   -0.1250    0.1250
  band No.  band energies     occupation 
      1     -11.3840      2.00000
      2      -6.2770      2.00000
      3      -4.7141      2.00000
      4      -3.7373      2.00000
      5      -3.5616      2.00000
      6      -1.7289      2.00000
      7      -0.4313      2.00000
      8       2.1693      2.00000
      9       2.9685      2.00000
     10       3.3444      2.00000
     11       3.8778      2.00000
     12       3.9722      2.00000
     13       5.8334      2.00000
     14       6.3754      2.00000
     15       7.7616      2.00000
     16      10.1680      0.17285
     17      10.3413      0.00014
     18      13.0927      0.00000
     19      13.7608      0.00000
     20      13.9027      0.00000
     21      15.3635      0.00000
     22      16.8003      0.00000

 k-point    17 :       0.1250    0.1250    0.3750
  band No.  band energies     occupation 
      1     -10.1017      2.00000
      2      -8.3488      2.00000
      3      -6.2990      2.00000
      4      -3.4757      2.00000
      5      -1.9881      2.00000
      6      -1.3487      2.00000
      7       0.6029      2.00000
      8       1.7946      2.00000
      9       2.9083      2.00000
     10       3.3491      2.00000
     11       4.1912      2.00000
     12       4.2372      2.00000
     13       5.5575      2.00000
     14       5.6712      2.00000
     15       6.0308      2.00000
     16       8.4165      2.00000
     17      11.8786      0.00000
     18      13.2343      0.00000
     19      14.8495      0.00000
     20      15.0928      0.00000
     21      16.6682      0.00000
     22      17.3643      0.00000

 k-point    18 :       0.3750    0.1250    0.3750
  band No.  band energies     occupation 
      1      -8.5200      2.00000
      2      -7.0840      2.00000
      3      -6.1227      2.00000
      4      -5.7037      2.00000
      5      -1.9175      2.00000
      6      -0.8224      2.00000
      7      -0.4333      2.00000
      8       0.4189      2.00000
      9       0.8743      2.00000
     10       1.6780      2.00000
     11       2.1160      2.00000
     12       2.9033      2.00000
     13       7.0888      2.00000
     14       7.1033      2.00000
     15       7.4578      2.00000
     16       8.4463      2.00000
     17      12.9386      0.00000
     18      13.3451      0.00000
     19      16.4877      0.00000
     20      16.7690      0.00000
     21      16.8615      0.00000
     22      17.6756      0.00000

 k-point    19 :      -0.3750    0.1250    0.3750
  band No.  band energies     occupation 
      1      -8.7886      2.00000
      2      -6.9095      2.00000
      3      -5.6852      2.00000
      4      -5.6078      2.00000
      5      -2.2531      2.00000
      6      -0.9496      2.00000
      7      -0.4727      2.00000
      8       0.1082      2.00000
      9       0.6397      2.00000
     10       1.3767      2.00000
     11       2.2999      2.00000
     12       3.4702      2.00000
     13       6.7972      2.00000
     14       7.0658      2.00000
     15       8.0031      2.00000
     16       8.7544      2.00000
     17      12.8784      0.00000
     18      13.3461      0.00000
     19      16.3758      0.00000
     20      16.8242      0.00000
     21      16.8961      0.00000
     22      18.1867      0.00000

 k-point    20 :      -0.1250    0.1250    0.3750
  band No.  band energies     occupation 
      1     -10.1918      2.00000
      2      -8.2786      2.00000
      3      -6.1876      2.00000
      4      -3.0288      2.00000
      5      -2.1558      2.00000
      6      -1.7376      2.00000
      7       0.7786      2.00000
      8       1.6074      2.00000
      9       2.3214      2.00000
     10       3.3783      2.00000
     11       3.7947      2.00000
     12       3.8536      2.00000
     13       6.0236      2.00000
     14       6.4024      2.00000
     15       6.5418      2.00000
     16       8.4235      2.00000
     17      11.6901      0.00000
     18      13.3449      0.00000
     19      14.8875      0.00000
     20      15.4183      0.00000
     21      16.4993      0.00000
     22      17.2899      0.00000

 k-point    21 :       0.1250    0.3750    0.3750
  band No.  band energies     occupation 
      1      -9.0172      2.00000
      2      -8.4073      2.00000
      3      -7.9029      2.00000
      4      -5.0265      2.00000
      5      -1.3897      2.00000
      6       1.3564      2.00000
      7       1.4410      2.00000
      8       2.0200      2.00000
      9       2.5195      2.00000
     10       2.6857      2.00000
     11       4.0694      2.00000
     12       4.2957      2.00000
     13       5.3347      2.00000
     14       5.8025      2.00000
     15       6.4103      2.00000
     16       7.0216      2.00000
     17      11.6568      0.00000
     18      12.4621      0.00000
     19      15.5088      0.00000
     20      16.3269      0.00000
     21      16.4515      0.00000
     22      16.9447      0.00000

 k-point    22 :       0.3750    0.3750    0.3750
  band No.  band energies     occupation 
      1      -7.3918      2.00000
      2      -7.2564      2.00000
      3      -6.8036      2.00000
      4      -5.4653      2.00000
      5      -3.0645      2.00000
      6      -2.4216      2.00000
      7      -2.0984      2.00000
      8      -0.3522      2.00000
      9       3.4193      2.00000
     10       3.6293      2.00000
     11       3.8604      2.00000
     12       4.4240      2.00000
     13       6.3565      2.00000
     14       7.4151      2.00000
     15       8.2764      2.00000
     16       8.7194      2.00000
     17      10.9655      0.00000
     18      12.3015      0.00000
     19      15.4425      0.00000
     20      16.1117      0.00000
     21      16.1144      0.00000
     22      16.3607      0.00000

 k-point    23 :      -0.3750    0.3750    0.3750
  band No.  band energies     occupation 
      1      -7.8452      2.00000
      2      -7.0520      2.00000
      3      -6.8389      2.00000
      4      -4.5330      2.00000
      5      -2.9731      2.00000
      6      -2.6118      2.00000
      7      -2.3288      2.00000
      8      -0.9721      2.00000
      9       3.0902      2.00000
     10       3.0921      2.00000
     11       4.1745      2.00000
     12       5.0755      2.00000
     13       6.0600      2.00000
     14       7.8194      2.00000
     15       8.4280      2.00000
     16       9.0671      2.00000
     17      11.3017      0.00000
     18      11.8488      0.00000
     19      15.7945      0.00000
     20      15.9274      0.00000
     21      15.9425      0.00000
     22      16.9155      0.00000

 k-point    24 :      -0.1250    0.3750    0.3750
  band No.  band energies     occupation 
      1      -9.1652      2.00000
      2      -8.3305      2.00000
      3      -7.8927      2.00000
      4      -4.7071      2.00000
      5      -1.1798      2.00000
      6       0.8433      2.00000
      7       0.9463      2.00000
      8       1.6683      2.00000
      9       2.5156      2.00000
     10       3.0912      2.00000
     11       3.9401      2.00000
     12       4.1415      2.00000
     13       5.6845      2.00000
     14       5.7862      2.00000
     15       6.5026      2.00000
     16       7.5828      2.00000
     17      11.1709      0.00000
     18      13.0941      0.00000
     19      15.5933      0.00000
     20      16.0632      0.00000
     21      16.6693      0.00000
     22      17.6808      0.00000

 k-point    25 :       0.1250   -0.3750    0.3750
  band No.  band energies     occupation 
      1      -9.7834      2.00000
      2      -7.1308      2.00000
      3      -6.8629      2.00000
      4      -6.7157      2.00000
      5      -0.6901      2.00000
      6      -0.1007      2.00000
      7      -0.0307      2.00000
      8       2.7563      2.00000
      9       3.6717      2.00000
     10       3.8668      2.00000
     11       4.2530      2.00000
     12       4.6566      2.00000
     13       5.0376      2.00000
     14       5.1374      2.00000
     15       5.8822      2.00000
     16       7.6848      2.00000
     17      12.6422      0.00000
     18      13.7431      0.00000
     19      14.1969      0.00000
     20      15.3267      0.00000
     21      16.1947      0.00000
     22      16.5651      0.00000

 k-point    26 :       0.3750   -0.3750    0.3750
  band No.  band energies     occupation 
      1      -8.3969      2.00000
      2      -6.3910      2.00000
      3      -5.8128      2.00000
      4      -5.5021      2.00000
      5      -3.0282      2.00000
      6      -2.9637      2.00000
      7      -2.4341      2.00000
      8      -1.1751      2.00000
      9       2.7276      2.00000
     10       4.2171      2.00000
     11       4.4418      2.00000
     12       5.2163      2.00000
     13       6.0524      2.00000
     14       6.7847      2.00000
     15       8.6031      2.00000
     16       9.9372      1.94265
     17      12.2534      0.00000
     18      12.4447      0.00000
     19      13.9679      0.00000
     20      14.8979      0.00000
     21      16.4051      0.00000
     22      16.6026      0.00000

 k-point    27 :      -0.3750   -0.3750    0.3750
  band No.  band energies     occupation 
      1      -8.3230      2.00000
      2      -6.5236      2.00000
      3      -6.2064      2.00000
      4      -5.1002      2.00000
      5      -3.0008      2.00000
      6      -2.7045      2.00000
      7      -2.5671      2.00000
      8      -1.1406      2.00000
      9       3.1456      2.00000
     10       3.5692      2.00000
     11       4.4723      2.00000
     12       4.9279      2.00000
     13       5.8335      2.00000
     14       7.3109      2.00000
     15       8.5994      2.00000
     16      10.0318      1.42625
     17      11.3385      0.00000
     18      13.5181      0.00000
     19      14.1480      0.00000
     20      14.3269      0.00000
     21      16.1801      0.00000
     22      16.5908      0.00000

 k-point    28 :      -0.1250   -0.3750    0.3750
  band No.  band energies     occupation 
      1      -9.7603      2.00000
      2      -7.3430      2.00000
      3      -6.7611      2.00000
      4      -6.6627      2.00000
      5      -0.7103      2.00000
      6      -0.0577      2.00000
      7       0.4507      2.00000
      8       2.6774      2.00000
      9       3.2690      2.00000
     10       3.3981      2.00000
     11       3.9479      2.00000
     12       4.7590      2.00000
     13       5.0136      2.00000
     14       5.3914      2.00000
     15       6.6625      2.00000
     16       7.4139      2.00000
     17      12.0403      0.00000
     18      14.2513      0.00000
     19      14.2802      0.00000
     20      14.9863      0.00000
     21      15.9755      0.00000
     22      16.4326      0.00000

 k-point    29 :       0.1250   -0.1250    0.3750
  band No.  band energies     occupation 
      1     -10.3570      2.00000
      2      -8.0002      2.00000
      3      -4.9726      2.00000
      4      -4.5221      2.00000
      5      -3.6045      2.00000
      6      -0.8887      2.00000
      7       1.4063      2.00000
      8       1.4860      2.00000
      9       2.3591      2.00000
     10       4.3031      2.00000
     11       4.3443      2.00000
     12       4.7120      2.00000
     13       5.3697      2.00000
     14       5.4467      2.00000
     15       5.7365      2.00000
     16       8.7604      2.00000
     17      13.3120      0.00000
     18      14.3128      0.00000
     19      14.6791      0.00000
     20      15.3142      0.00000
     21      15.4980      0.00000
     22      15.9992      0.00000

 k-point    30 :       0.3750   -0.1250    0.3750
  band No.  band energies     occupation 
      1      -8.8492      2.00000
      2      -6.7530      2.00000
      3      -6.3609      2.00000
      4      -4.1809      2.00000
      5      -2.8841      2.00000
      6      -1.7039      2.00000
      7      -0.9141      2.00000
      8       0.0633      2.00000
      9       0.6028      2.00000
     10       2.0639      2.00000
     11       2.2943      2.00000
     12       4.4471      2.00000
     13       6.1980      2.00000
     14       6.7744      2.00000
     15       8.0131      2.00000
     16       9.6859      2.00000
     17      13.7826      0.00000
     18      14.2224      0.00000
     19      15.2200      0.00000
     20      15.3053      0.00000
     21      17.3768      0.00000
     22      17.5573      0.00000

 k-point    31 :      -0.3750   -0.1250    0.3750
  band No.  band energies     occupation 
      1      -8.9435      2.00000
      2      -6.3619      2.00000
      3      -6.2651      2.00000
      4      -4.8735      2.00000
      5      -2.9153      2.00000
      6      -1.7806      2.00000
      7      -0.3080      2.00000
      8       0.1790      2.00000
      9       0.9177      2.00000
     10       1.5958      2.00000
     11       2.4690      2.00000
     12       3.8519      2.00000
     13       5.9875      2.00000
     14       7.3730      2.00000
     15       7.8357      2.00000
     16       9.7773      1.99997
     17      13.7603      0.00000
     18      14.0694      0.00000
     19      14.4488      0.00000
     20      15.9025      0.00000
     21      16.6912      0.00000
     22      17.3955      0.00000

 k-point    32 :      -0.1250   -0.1250    0.3750
  band No.  band energies     occupation 
      1     -10.3904      2.00000
      2      -7.8690      2.00000
      3      -5.0266      2.00000
      4      -4.8642      2.00000
      5      -3.3924      2.00000
      6      -0.3757      2.00000
      7       1.0610      2.00000
      8       1.7690      2.00000
      9       1.8151      2.00000
     10       4.0771      2.00000
     11       4.2949      2.00000
     12       4.5535      2.00000
     13       5.7096      2.00000
     14       5.7547      2.00000
     15       6.0894      2.00000
     16       8.3486      2.00000
     17      13.3401      0.00000
     18      13.7478      0.00000
     19      14.6582      0.00000
     20      15.4841      0.00000
     21      15.6563      0.00000
     22      15.7286      0.00000


--------------------------------------------------------------------------------------------------------


 soft charge-density along one line, spin component           1
         0         1         2         3         4         5         6         7         8         9
 total charge-density along one line
 
 pseudopotential strength for first ion, spin component:           1
  9.476  12.585   0.000  -0.000   0.000  -0.000   0.001  -0.003
 12.585  16.713   0.000  -0.000   0.001  -0.001   0.002  -0.004
  0.000   0.000  -3.704   0.000   0.001   7.258  -0.000  -0.001
 -0.000  -0.000   0.000  -3.705  -0.001  -0.000   7.260   0.003
  0.000   0.001   0.001  -0.001  -3.705  -0.001   0.003   7.259
[...]
      5      -4.3246      2.00000
      6      -0.7717      2.00000
      7      -0.5356      2.00000
      8      -0.1434      2.00000
      9       0.0948      2.00000
     10       1.9586      2.00000
     11       2.2406      2.00000
     12       2.4537      2.00000
     13       3.6982      2.00000
     14       3.9823      2.00000
     15      10.0389      1.76698
     16      10.5600      0.00000
     17      13.5372      0.00000
     18      13.6919      0.00000
     19      14.2651      0.00000
     20      16.5928      0.00000
     21      16.8098      0.00000
     22      17.3956      0.00000

 k-point    20 :      -0.1250    0.1250    0.3750
  band No.  band energies     occupation 
      1     -10.4783      2.00000
      2      -8.6880      2.00000
      3      -6.6366      2.00000
      4      -4.4771      2.00000
      5      -2.1075      2.00000
      6      -1.8984      2.00000
      7      -0.0440      2.00000
      8       1.3032      2.00000
      9       2.3163      2.00000
     10       2.5739      2.00000
     11       2.7461      2.00000
     12       3.4474      2.00000
     13       4.0948      2.00000
     14       4.3870      2.00000
     15       7.9844      2.00000
     16       9.7550      2.00000
     17      11.3521      0.00000
     18      13.6246      0.00000
     19      13.9549      0.00000
     20      14.4323      0.00000
     21      15.8723      0.00000
     22      16.0474      0.00000

 k-point    21 :       0.1250    0.3750    0.3750
  band No.  band energies     occupation 
      1      -9.3440      2.00000
      2      -8.8459      2.00000
      3      -8.2427      2.00000
      4      -5.4584      2.00000
      5      -2.0073      2.00000
      6      -0.3984      2.00000
      7       0.2878      2.00000
      8       1.3347      2.00000
      9       1.7686      2.00000
     10       2.9581      2.00000
     11       3.1168      2.00000
     12       3.6856      2.00000
     13       4.1463      2.00000
     14       6.8926      2.00000
     15       7.0711      2.00000
     16       8.3362      2.00000
     17      10.3304      0.00340
     18      11.1999      0.00000
     19      13.1745      0.00000
     20      16.0463      0.00000
     21      17.3185      0.00000
     22      18.9490      0.00000

 k-point    22 :       0.3750    0.3750    0.3750
  band No.  band energies     occupation 
      1      -7.9740      2.00000
      2      -7.8045      2.00000
      3      -6.8361      2.00000
      4      -5.6766      2.00000
      5      -4.0897      2.00000
      6      -3.9842      2.00000
      7      -1.0541      2.00000
      8      -0.9359      2.00000
      9       1.6706      2.00000
     10       2.5271      2.00000
     11       3.5365      2.00000
     12       4.0521      2.00000
     13       5.5985      2.00000
     14       6.3010      2.00000
     15       7.9381      2.00000
     16      10.7077      0.00000
     17      10.8920      0.00000
     18      13.2651      0.00000
     19      13.2947      0.00000
     20      15.8566      0.00000
     21      16.0421      0.00000
     22      17.3985      0.00000

 k-point    23 :      -0.3750    0.3750    0.3750
  band No.  band energies     occupation 
      1      -8.1679      2.00000
      2      -7.6676      2.00000
      3      -7.1720      2.00000
      4      -5.3632      2.00000
      5      -3.8398      2.00000
      6      -3.0909      2.00000
      7      -1.7302      2.00000
      8      -1.4491      2.00000
      9       1.9642      2.00000
     10       2.6663      2.00000
     11       2.9147      2.00000
     12       4.3912      2.00000
     13       5.0551      2.00000
     14       5.1823      2.00000
     15       9.4359      2.00000
     16      10.8148      0.00000
     17      11.4474      0.00000
     18      13.7881      0.00000
     19      13.9962      0.00000
     20      14.5996      0.00000
     21      15.2285      0.00000
     22      17.4911      0.00000

 k-point    24 :      -0.1250    0.3750    0.3750
  band No.  band energies     occupation 
      1      -9.4779      2.00000
      2      -8.6756      2.00000
      3      -8.3700      2.00000
      4      -5.3126      2.00000
      5      -1.6839      2.00000
      6      -0.3024      2.00000
      7       1.0631      2.00000
      8       1.2692      2.00000
      9       1.8477      2.00000
     10       1.9668      2.00000
     11       2.5761      2.00000
     12       3.1443      2.00000
     13       4.1763      2.00000
     14       5.2725      2.00000
     15       7.8974      2.00000
     16       9.9285      1.99410
     17      10.2794      0.02713
     18      12.0599      0.00000
     19      14.7705      0.00000
     20      14.8409      0.00000
     21      16.8734      0.00000
     22      16.8894      0.00000

 k-point    25 :       0.1250   -0.3750    0.3750
  band No.  band energies     occupation 
      1     -10.1299      2.00000
      2      -7.5414      2.00000
      3      -7.2221      2.00000
      4      -7.0683      2.00000
      5      -1.6728      2.00000
      6      -1.3540      2.00000
      7      -1.0705      2.00000
      8       2.2819      2.00000
      9       2.7284      2.00000
     10       3.0481      2.00000
     11       3.3142      2.00000
     12       4.7610      2.00000
     13       5.2970      2.00000
     14       6.1460      2.00000
     15       6.4129      2.00000
     16       7.1685      2.00000
     17      11.3555      0.00000
     18      12.2454      0.00000
     19      12.3472      0.00000
     20      15.4324      0.00000
     21      15.8588      0.00000
     22      16.5539      0.00000

 k-point    26 :       0.3750   -0.3750    0.3750
  band No.  band energies     occupation 
      1      -8.9189      2.00000
      2      -6.0784      2.00000
      3      -6.0694      2.00000
      4      -6.0369      2.00000
      5      -5.0112      2.00000
      6      -3.9048      2.00000
      7      -2.9446      2.00000
      8      -0.3812      2.00000
      9       2.3433      2.00000
     10       2.8877      2.00000
     11       3.6646      2.00000
     12       4.6260      2.00000
     13       5.5635      2.00000
     14       6.2059      2.00000
     15       7.5851      2.00000
     16      11.6169      0.00000
     17      11.9223      0.00000
     18      12.1696      0.00000
     19      13.8023      0.00000
     20      14.6110      0.00000
     21      14.9832      0.00000
     22      16.2478      0.00000

 k-point    27 :      -0.3750   -0.3750    0.3750
  band No.  band energies     occupation 
      1      -8.5643      2.00000
      2      -7.4690      2.00000
      3      -6.5588      2.00000
      4      -5.7794      2.00000
      5      -3.2696      2.00000
      6      -2.7444      2.00000
      7      -2.5996      2.00000
      8      -1.7264      2.00000
      9       1.1311      2.00000
     10       2.6715      2.00000
     11       3.4812      2.00000
     12       4.6239      2.00000
     13       5.2178      2.00000
     14       5.7753      2.00000
     15       9.3029      2.00000
     16      10.4501      0.00000
     17      11.5466      0.00000
     18      13.4979      0.00000
     19      14.8991      0.00000
     20      14.8998      0.00000
     21      15.9182      0.00000
     22      16.4457      0.00000

 k-point    28 :      -0.1250   -0.3750    0.3750
  band No.  band energies     occupation 
      1     -10.0633      2.00000
      2      -7.7297      2.00000
      3      -7.3863      2.00000
      4      -7.0925      2.00000
      5      -0.6563      2.00000
      6       0.1974      2.00000
      7       0.5217      2.00000
      8       1.0201      2.00000
      9       1.0730      2.00000
     10       1.2530      2.00000
     11       2.5408      2.00000
     12       3.3558      2.00000
     13       4.2536      2.00000
     14       8.0599      2.00000
     15       8.3306      2.00000
     16       8.7293      2.00000
     17       9.9342      1.99249
     18      11.3174      0.00000
     19      13.6930      0.00000
     20      15.4000      0.00000
     21      16.0431      0.00000
     22      17.8129      0.00000

 k-point    29 :       0.1250   -0.1250    0.3750
  band No.  band energies     occupation 
      1     -10.6650      2.00000
      2      -8.3316      2.00000
      3      -5.5692      2.00000
      4      -5.2825      2.00000
      5      -3.4571      2.00000
      6      -2.5221      2.00000
      7       0.0320      2.00000
      8       0.6954      2.00000
      9       2.8339      2.00000
     10       3.0495      2.00000
     11       4.0368      2.00000
     12       4.6128      2.00000
     13       5.3870      2.00000
     14       5.7665      2.00000
     15       6.2858      2.00000
     16       7.7883      2.00000
     17      11.2998      0.00000
     18      11.7891      0.00000
     19      13.9842      0.00000
     20      15.5643      0.00000
     21      15.9732      0.00000
     22      16.1420      0.00000

 k-point    30 :       0.3750   -0.1250    0.3750
  band No.  band energies     occupation 
      1      -9.2747      2.00000
      2      -7.0087      2.00000
      3      -6.4210      2.00000
      4      -5.4433      2.00000
      5      -3.5643      2.00000
      6      -2.7065      2.00000
      7      -2.2750      2.00000
      8       1.0577      2.00000
      9       1.2625      2.00000
     10       1.3643      2.00000
     11       1.5299      2.00000
     12       3.9302      2.00000
     13       4.4561      2.00000
     14       5.8399      2.00000
     15       8.0405      2.00000
     16      10.4697      0.00000
     17      12.1349      0.00000
     18      14.3603      0.00000
     19      15.1241      0.00000
     20      15.8094      0.00000
     21      16.6576      0.00000
     22      17.3738      0.00000

 k-point    31 :      -0.3750   -0.1250    0.3750
  band No.  band energies     occupation 
      1      -9.2180      2.00000
      2      -7.1072      2.00000
      3      -6.9576      2.00000
      4      -4.7801      2.00000
      5      -4.0977      2.00000
      6      -1.1880      2.00000
      7      -0.8933      2.00000
      8      -0.5827      2.00000
      9      -0.4110      2.00000
     10       2.3060      2.00000
     11       2.5279      2.00000
     12       2.9585      2.00000
     13       3.3977      2.00000
     14       4.5999      2.00000
     15       9.7005      2.00000
     16      10.8772      0.00000
     17      13.4258      0.00000
     18      14.0085      0.00000
     19      14.7652      0.00000
     20      15.7686      0.00000
     21      17.0895      0.00000
     22      18.2663      0.00000

 k-point    32 :      -0.1250   -0.1250    0.3750
  band No.  band energies     occupation 
      1     -10.6753      2.00000
      2      -8.2627      2.00000
      3      -5.9286      2.00000
      4      -5.5890      2.00000
      5      -3.2481      2.00000
      6      -0.2692      2.00000
      7       0.4872      2.00000
      8       1.3240      2.00000
      9       1.5176      2.00000
     10       2.1053      2.00000
     11       2.4350      2.00000
     12       2.5057      2.00000
     13       4.7125      2.00000
     14       6.0882      2.00000
     15       8.6936      2.00000
     16       9.0560      2.00000
     17      11.7612      0.00000
     18      12.2761      0.00000
     19      13.0680      0.00000
     20      15.6899      0.00000
     21      15.7054      0.00000
     22      17.0146      0.00000


--------------------------------------------------------------------------------------------------------


 soft charge-density along one line, spin component           1
         0         1         2         3         4         5         6         7         8         9
 total charge-density along one line
 
 pseudopotential strength for first ion, spin component:           1
  9.490  12.603   0.000   0.000   0.000  -0.000   0.000   0.000
 12.603  16.737   0.000   0.000   0.000  -0.000   0.000   0.000
  0.000   0.000  -3.710   0.001  -0.001   7.262  -0.001   0.001
  0.000   0.000   0.001  -3.703  -0.002  -0.001   7.253   0.003
  0.000   0.000  -0.001  -0.002  -3.710   0.001   0.003   7.262
 -0.000  -0.000   7.262  -0.001   0.001 -16.313   0.002  -0.000
  0.000   0.000  -0.001   7.253   0.003   0.002 -16.301  -0.004
  0.000   0.000   0.001   0.003   7.262  -0.000  -0.004 -16.315
 total augmentation occupancy for first ion, spin component:           1
  7.584  -3.328  -0.012  -0.071  -0.216  -0.000  -0.011  -0.033
 -3.328   1.545   0.007   0.041   0.122  -0.000   0.005   0.016
 -0.012   0.007   1.744  -0.051   0.074   0.158  -0.011   0.008
 -0.071   0.041  -0.051   1.281   0.088  -0.011   0.074   0.020
 -0.216   0.122   0.074   0.088   1.672   0.008   0.020   0.153
 -0.000  -0.000   0.158  -0.011   0.008   0.016  -0.001   0.001
 -0.011   0.005  -0.011   0.074   0.020  -0.001   0.006   0.002
 -0.033   0.016   0.008   0.020   0.153   0.001   0.002   0.015


------------------------ aborting loop because EDIFF is reached ----------------------------------------


    CHARGE:  cpu time    0.0521: real time    0.0521
    FORLOC:  cpu time    0.0023: real time    0.0023
    FORNL :  cpu time    0.1181: real time    0.1181
    STRESS:  cpu time    0.2709: real time    0.2709
    FORCOR:  cpu time    0.0278: real time    0.0278
    FORHAR:  cpu time    0.0069: real time    0.0069
    MIXING:  cpu time    0.0008: real time    0.0008
    OFIELD:  cpu time    0.0000: real time    0.0000

  FORCE on cell =-STRESS in cart. coord.  units (eV):
  Direction    XX          YY          ZZ          XY          YZ          ZX
  --------------------------------------------------------------------------------------
  Alpha Z   110.98991   110.98991   110.98991
  Ewald    -322.74409  -292.99495  -734.46458    29.33960   -52.00317    96.02078
  Hartree    64.04583    71.12200   -18.56884     3.47912    -9.67162    17.84381
  E(xc)    -120.61794  -120.65213  -122.05714     0.02529    -0.14161     0.32224
  Local    -193.47478  -226.35632   258.12420   -27.73371    56.26966  -103.38605
  n-local   -24.32231   -26.38874   -28.66666    -1.18371    -1.03322     1.67285
  augment    -2.94808    -2.95959    -2.75749    -0.03101     0.02366    -0.05006
  Kinetic   476.13231   488.09859   568.55373    -0.32541    15.48907   -27.71308
  Fock        0.00000     0.00000     0.00000     0.00000     0.00000     0.00000
  -------------------------------------------------------------------------------------
  Total     -12.93915     0.85877    31.15312     3.57019     8.93278   -15.28951
  in kB    -437.65268    29.04688  1053.72057   120.75788   302.14173  -517.15125
  external pressure =      215.04 kB  Pullay stress =        0.00 kB


 VOLUME and BASIS-vectors are now :
 -----------------------------------------------------------------------------
  energy-cutoff  :      600.00
  volume of cell :       47.37
      direct lattice vectors                 reciprocal lattice vectors
     2.017757324  1.287749323 -1.929930381     0.225941058  0.125540040 -0.198163455
     2.912869823 -0.497239401  3.006172028     0.179400566 -0.057285094  0.149341120
     0.350357698 -3.282279756 -1.679912896     0.061466551 -0.246734451 -0.100370221

  length of vectors
     3.074780352  4.215344338  3.703811314     0.325696820  0.240351649  0.273368263


 FORCES acting on ions
    electron-ion (+dipol)            ewald-force                    non-local-force                 convergence-correction
 -----------------------------------------------------------------------------------------------
   -.129E+02 0.155E+01 -.451E+01   0.130E+02 -.156E+01 0.455E+01   -.945E-01 0.882E-02 -.397E-01   0.279E-03 0.567E-03 0.418E-04
   0.129E+02 -.155E+01 0.451E+01   -.130E+02 0.156E+01 -.455E+01   0.945E-01 -.882E-02 0.397E-01   -.279E-03 -.567E-03 -.418E-04
   -.129E+02 0.155E+01 -.451E+01   0.130E+02 -.156E+01 0.455E+01   -.945E-01 0.882E-02 -.397E-01   0.279E-03 0.567E-03 0.418E-04
   0.129E+02 -.155E+01 0.451E+01   -.130E+02 0.156E+01 -.455E+01   0.945E-01 -.882E-02 0.397E-01   -.279E-03 -.567E-03 -.418E-04
   -.129E+02 0.155E+01 -.451E+01   0.130E+02 -.156E+01 0.455E+01   -.945E-01 0.882E-02 -.397E-01   0.279E-03 0.567E-03 0.418E-04
   0.129E+02 -.155E+01 0.451E+01   -.130E+02 0.156E+01 -.455E+01   0.945E-01 -.882E-02 0.397E-01   -.279E-03 -.567E-03 -.418E-04
   -.129E+02 0.155E+01 -.451E+01   0.130E+02 -.156E+01 0.455E+01   -.945E-01 0.882E-02 -.397E-01   0.279E-03 0.567E-03 0.418E-04
   0.129E+02 -.155E+01 0.451E+01   -.130E+02 0.156E+01 -.455E+01   0.945E-01 -.882E-02 0.397E-01   -.279E-03 -.567E-03 -.418E-04
 -----------------------------------------------------------------------------------------------
   -.190E-12 -.474E-12 -.244E-11   -.888E-14 0.933E-14 0.266E-14   0.000E+00 0.000E+00 0.694E-17   -.153E-13 0.108E-12 0.277E-12
 
 
 POSITION                                       TOTAL-FORCE (eV/Angst)
 -----------------------------------------------------------------------------------
      0.80545     -2.01921     -1.18413        -0.004013     -0.000746      0.002193
      2.18540     -2.50895     -0.79762         0.004013      0.000746     -0.002193
      2.08671     -0.62669      1.15891        -0.004013     -0.000746      0.002193
      3.46666     -1.11643      1.54542         0.004013      0.000746     -0.002193
      1.63915      0.26580     -1.30914        -0.004013     -0.000746      0.002193
      3.01910     -0.22394     -0.92263         0.004013      0.000746     -0.002193
      3.27076     -1.62396     -0.64601        -0.004013     -0.000746      0.002193
      4.65071     -2.11370     -0.25950         0.004013      0.000746     -0.002193
 -----------------------------------------------------------------------------------
    total drift:                               -0.000000     -0.000000     -0.000000


--------------------------------------------------------------------------------------------------------



  FREE ENERGIE OF THE ION-ELECTRON SYSTEM (eV)
  ---------------------------------------------------
  free  energy   TOTEN  =       -66.70562236 eV

  energy  without entropy=      -66.70343347  energy(sigma->0) =      -66.70452791
 
 d Force = 0.1969345E-06[ 0.785E-07, 0.315E-06]  d Energy =-0.1129133E-06 0.310E-06
 d Force =-0.5306746E-03[-0.531E-03,-0.530E-03]  d Ewald  =-0.5306746E-03-0.250E-11


--------------------------------------------------------------------------------------------------------


    POTLOK:  cpu time    0.0300: real time    0.0300


--------------------------------------------------------------------------------------------------------




--------------------------------------------------------------------------------------------------------


  
 reached required accuracy - stopping structural energy minimisation
     LOOP+:  cpu time    1.7851: real time    1.7865
    4ORBIT:  cpu time    0.0000: real time    0.0000

 total amount of memory used by VASP MPI-rank0    54295. kBytes
=======================================================================

   base      :      30000. kBytes
   nonl-proj :       3464. kBytes
   fftplans  :       4321. kBytes
   grid      :       7160. kBytes
   one-center:         24. kBytes
   wavefun   :       9326. kBytes
 
  
  
 General timing and accounting informations for this job:
 ========================================================
  
                  Total CPU time used (sec):      202.585
                            User time (sec):      200.118
                          System time (sec):        2.467
                         Elapsed time (sec):      203.035
  
                   Maximum memory used (kb):      123452.
                   Average memory used (kb):          N/A
  
                          Minor page faults:       449601
                          Major page faults:            4
                 Voluntary context switches:          591
