<?xml version="1.0" encoding="ISO-8859-1"?>
<modeling>
 <generator>
  <i name="program" type="string">vasp </i>
  <i name="version" type="string">6.2.1  </i>
  <i name="subversion" type="string">16May21 (build Oct 21 2023 21:03:18) complex                          parallel </i>
  <i name="platform" type="string">LinuxIFC </i>
  <i name="date" type="string">2024 06 06 </i>
  <i name="time" type="string">18:34:48 </i>
 </generator>
 <incar>
  <i type="int" name="ISTART">     0</i>
  <i type="string" name="PREC">accurate</i>
  <i type="int" name="IBRION">     2</i>
  <i name="EDIFF">      0.00000100</i>
  <i name="EDIFFG">      0.00001000</i>
  <i type="int" name="NSW">   300</i>
  <i type="int" name="ISIF">     2</i>
  <i type="int" name="ISYM">     2</i>
  <i name="ENCUT">    600.00000000</i>
  <i type="logical" name="LREAL"> F  </i>
  <i type="logical" name="LPLANE"> F  </i>
  <i type="int" name="ISMEAR">     0</i>
  <i name="SIGMA">      0.10000000</i>
  <i type="logical" name="LWAVE"> F  </i>
  <i type="logical" name="LCHARG"> F  </i>
 </incar>
 <primitive_cell>
  <structure name="primitive_cell" >
   <crystal>
    <varray name="basis" >
     <v>      -1.28125606      -1.39252018      -2.34304246 </v>
     <v>      -3.29901339      -2.68026950      -0.41311208 </v>
     <v>      -0.44755625       0.89249436      -2.46805120 </v>
    </varray>
    <i name="volume">     11.84204472 </i>
    <varray name="rec_basis" >
     <v>       0.58974128      -0.67194841      -0.34993300 </v>
     <v>      -0.46680818       0.17847950       0.14919256 </v>
     <v>      -0.48173423       0.60803909      -0.09794180 </v>
    </varray>
   </crystal>
   <varray name="positions" >
    <v>       0.12500000       0.12500000       0.50000000 </v>
    <v>       0.37500000       0.37500000       0.50000000 </v>
   </varray>
  </structure>
  <varray name="primitive_index" >
   <v type="int" >        1 </v>
   <v type="int" >        2 </v>
  </varray>
 </primitive_cell>
 <kpoints>
  <generation param="Monkhorst-Pack">
   <v type="int" name="divisions">       4        4        4 </v>
   <v name="usershift">      0.00000000       0.00000000       0.00000000 </v>
   <v name="genvec1">      0.25000000      -0.00000000       0.00000000 </v>
   <v name="genvec2">      0.00000000       0.25000000       0.00000000 </v>
   <v name="genvec3">      0.00000000      -0.00000000       0.25000000 </v>
   <v name="shift">      0.50000000       0.50000000       0.50000000 </v>
  </generation>
  <varray name="kpointlist" >
   <v>       0.12500000       0.12500000       0.12500000 </v>
   <v>       0.37500000       0.12500000       0.12500000 </v>
   <v>      -0.37500000       0.12500000       0.12500000 </v>
   <v>      -0.12500000       0.12500000       0.12500000 </v>
   <v>       0.12500000       0.37500000       0.12500000 </v>
   <v>       0.37500000       0.37500000       0.12500000 </v>
   <v>      -0.37500000       0.37500000       0.12500000 </v>
   <v>      -0.12500000       0.37500000       0.12500000 </v>
   <v>       0.12500000      -0.37500000       0.12500000 </v>
   <v>       0.37500000      -0.37500000       0.12500000 </v>
   <v>      -0.37500000      -0.37500000       0.12500000 </v>
   <v>      -0.12500000      -0.37500000       0.12500000 </v>
   <v>       0.12500000      -0.12500000       0.12500000 </v>
   <v>       0.37500000      -0.12500000       0.12500000 </v>
   <v>      -0.37500000      -0.12500000       0.12500000 </v>
   <v>      -0.12500000      -0.12500000       0.12500000 </v>
   <v>       0.12500000       0.12500000       0.37500000 </v>
   <v>       0.37500000       0.12500000       0.37500000 </v>
   <v>      -0.37500000       0.12500000       0.37500000 </v>
   <v>      -0.12500000       0.12500000       0.37500000 </v>
   <v>       0.12500000       0.37500000       0.37500000 </v>
   <v>       0.37500000       0.37500000       0.37500000 </v>
   <v>      -0.37500000       0.37500000       0.37500000 </v>
   <v>      -0.12500000       0.37500000       0.37500000 </v>
   <v>       0.12500000      -0.37500000       0.37500000 </v>
   <v>       0.37500000      -0.37500000       0.37500000 </v>
   <v>      -0.37500000      -0.37500000       0.37500000 </v>
   <v>      -0.12500000      -0.37500000       0.37500000 </v>
   <v>       0.12500000      -0.12500000       0.37500000 </v>
   <v>       0.37500000      -0.12500000       0.37500000 </v>
   <v>      -0.37500000      -0.12500000       0.37500000 </v>
   <v>      -0.12500000      -0.12500000       0.37500000 </v>
  </varray>
  <varray name="weights" >
   <v>       0.03125000 </v>
   <v>       0.03125000 </v>
   <v>       0.03125000 </v>
   <v>       0.03125000 </v>
   <v>       0.03125000 </v>
   <v>       0.03125000 </v>
   <v>       0.03125000 </v>
   <v>       0.03125000 </v>
   <v>       0.03125000 </v>
   <v>       0.03125000 </v>
   <v>       0.03125000 </v>
   <v>       0.03125000 </v>
   <v>       0.03125000 </v>
   <v>       0.03125000 </v>
   <v>       0.03125000 </v>
   <v>       0.03125000 </v>
   <v>       0.03125000 </v>
   <v>       0.03125000 </v>
   <v>       0.03125000 </v>
   <v>       0.03125000 </v>
   <v>       0.03125000 </v>
   <v>       0.03125000 </v>
   <v>       0.03125000 </v>
   <v>       0.03125000 </v>
   <v>       0.03125000 </v>
   <v>       0.03125000 </v>
   <v>       0.03125000 </v>
   <v>       0.03125000 </v>
   <v>       0.03125000 </v>
   <v>       0.03125000 </v>
   <v>       0.03125000 </v>
   <v>       0.03125000 </v>
  </varray>
 </kpoints>
 <parameters>
  <separator name="general" >
   <i type="string" name="SYSTEM">unknown system</i>
   <i type="logical" name="LCOMPAT"> F  </i>
  </separator>
  <separator name="electronic" >
   <i type="string" name="PREC">accura</i>
   <i name="ENMAX">    600.00000000</i>
   <i name="ENAUG">    644.87300000</i>
   <i name="EDIFF">      0.00000100</i>
   <i type="int" name="IALGO">    38</i>
   <i type="int" name="IWAVPR">    11</i>
   <i type="int" name="NBANDS">    22</i>
   <i type="int" name="NBANDSLOW">    -1</i>
   <i type="int" name="NBANDSHIGH">    -1</i>
   <i name="NELECT">     32.00000000</i>
   <i type="int" name="TURBO">     0</i>
   <i type="int" name="IRESTART">     0</i>
   <i type="int" name="NREBOOT">     0</i>
   <i type="int" name="NMIN">     0</i>
   <i name="EREF">      0.00000000</i>
   <separator name="electronic smearing" >
    <i type="int" name="ISMEAR">     0</i>
    <i name="SIGMA">      0.10000000</i>
    <i name="KSPACING">      0.50000000</i>
    <i type="logical" name="KGAMMA"> T  </i>
    <i type="logical" name="KBLOWUP"> T  </i>
   </separator>
   <separator name="electronic projectors" >
    <i type="logical" name="LREAL"> F  </i>
    <v name="ROPT">      0.00000000</v>
    <i type="int" name="LMAXPAW">  -100</i>
    <i type="int" name="LMAXMIX">     2</i>
    <i type="logical" name="NLSPLINE"> F  </i>
   </separator>
   <separator name="electronic startup" >
    <i type="int" name="ISTART">     0</i>
    <i type="int" name="ICHARG">     2</i>
    <i type="int" name="INIWAV">     1</i>
   </separator>
   <separator name="electronic spin" >
    <i type="int" name="ISPIN">     1</i>
    <i type="logical" name="LNONCOLLINEAR"> F  </i>
    <v name="MAGMOM">      1.00000000      1.00000000      1.00000000      1.00000000      1.00000000      1.00000000      1.00000000      1.00000000</v>
    <i name="NUPDOWN">     -1.00000000</i>
    <i type="logical" name="LSORBIT"> F  </i>
    <v name="SAXIS">      0.00000000      0.00000000      1.00000000</v>
    <i type="logical" name="LSPIRAL"> F  </i>
    <v name="QSPIRAL">      0.00000000      0.00000000      0.00000000</v>
    <i type="logical" name="LZEROZ"> F  </i>
   </separator>
   <separator name="electronic exchange-correlation" >
    <i type="logical" name="LASPH"> F  </i>
    <i type="logical" name="LMETAGGA"> F  </i>
   </separator>
   <separator name="electronic convergence" >
    <i type="int" name="NELM">    60</i>
    <i type="int" name="NELMDL">    -5</i>
    <i type="int" name="NELMIN">     2</i>
    <i name="ENINI">    600.00000000</i>
    <separator name="electronic convergence detail" >
     <i type="logical" name="LDIAG"> T  </i>
     <i type="logical" name="LSUBROT"> F  </i>
     <i name="WEIMIN">      0.00100000</i>
     <i name="EBREAK">      0.00000001</i>
     <i name="DEPER">      0.30000000</i>
     <i type="int" name="NRMM">     4</i>
     <i name="TIME">      0.40000000</i>
    </separator>
   </separator>
   <separator name="electronic mixer" >
    <i name="AMIX">      0.40000000</i>
    <i name="BMIX">      1.00000000</i>
    <i name="AMIN">      0.10000000</i>
    <i name="AMIX_MAG">      1.60000000</i>
    <i name="BMIX_MAG">      1.00000000</i>
    <separator name="electronic mixer details" >
     <i type="int" name="IMIX">     4</i>
     <i type="logical" name="MIXFIRST"> F  </i>
     <i type="int" name="MAXMIX">   -45</i>
     <i name="WC">    100.00000000</i>
     <i type="int" name="INIMIX">     1</i>
     <i type="int" name="MIXPRE">     1</i>
     <i type="int" name="MREMOVE">     5</i>
    </separator>
   </separator>
   <separator name="electronic dipolcorrection" >
    <i type="logical" name="LDIPOL"> F  </i>
    <i type="logical" name="LMONO"> F  </i>
    <i type="int" name="IDIPOL">     0</i>
    <i name="EPSILON">      1.00000000</i>
    <v name="DIPOL">   -100.00000000   -100.00000000   -100.00000000</v>
    <i name="EFIELD">      0.00000000</i>
   </separator>
  </separator>
  <separator name="grids" >
   <i type="int" name="NGX">    28</i>
   <i type="int" name="NGY">    36</i>
   <i type="int" name="NGZ">    30</i>
   <i type="int" name="NGXF">    56</i>
   <i type="int" name="NGYF">    72</i>
   <i type="int" name="NGZF">    60</i>
   <i type="logical" name="ADDGRID"> F  </i>
  </separator>
  <separator name="ionic" >
   <i type="int" name="NSW">   300</i>
   <i type="int" name="IBRION">     2</i>
   <i type="int" name="MDALGO">     0</i>
   <i type="int" name="ISIF">     2</i>
   <i name="PSTRESS">      0.00000000</i>
   <i name="EDIFFG">      0.00001000</i>
   <i type="int" name="NFREE">     1</i>
   <i name="POTIM">      0.50000000</i>
   <i name="SMASS">     -3.00000000</i>
   <i name="SCALEE">      1.00000000</i>
  </separator>
  <separator name="ionic md" >
   <i name="TEBEG">      0.00010000</i>
   <i name="TEEND">      0.00010000</i>
   <i type="int" name="NBLOCK">     1</i>
   <i type="int" name="KBLOCK">   300</i>
   <i type="int" name="NPACO">   256</i>
   <i name="APACO">     16.00000000</i>
  </separator>
  <separator name="symmetry" >
   <i type="int" name="ISYM">     2</i>
   <i name="SYMPREC">      0.00001000</i>
  </separator>
  <separator name="dos" >
   <i type="int" name="LORBIT">     0</i>
   <v name="RWIGS">     -1.00000000</v>
   <i type="int" name="NEDOS">   301</i>
   <i name="EMIN">     10.00000000</i>
   <i name="EMAX">    -10.00000000</i>
   <i name="EFERMI">      0.00000000</i>
  </separator>
  <separator name="writing" >
   <i type="int" name="NWRITE">     2</i>
   <i type="logical" name="LWAVE"> F  </i>
   <i type="logical" name="LDOWNSAMPLE"> F  </i>
   <i type="logical" name="LCHARG"> F  </i>
   <i type="logical" name="LPARD"> F  </i>
   <i type="logical" name="LVTOT"> F  </i>
   <i type="logical" name="LVHAR"> F  </i>
   <i type="logical" name="LELF"> F  </i>
   <i type="logical" name="LOPTICS"> F  </i>
   <v name="STM">      0.00000000      0.00000000      0.00000000      0.00000000      0.00000000      0.00000000      0.00000000</v>
  </separator>
  <separator name="performance" >
   <i type="int" name="NPAR">     2</i>
   <i type="int" name="NSIM">     4</i>
   <i type="int" name="NBLK">    -1</i>
   <i type="logical" name="LPLANE"> F  </i>
   <i type="logical" name="LSCALAPACK"> T  </i>
   <i type="logical" name="LSCAAWARE"> F  </i>
   <i type="logical" name="LSCALU"> F  </i>
   <i type="logical" name="LASYNC"> F  </i>
   <i type="logical" name="LORBITALREAL"> F  </i>
  </separator>
  <separator name="miscellaneous" >
   <i type="int" name="IDIOT">     3</i>
   <i type="int" name="PHON_NSTRUCT">    -1</i>
   <i type="logical" name="LMUSIC"> F  </i>
   <v name="POMASS">     12.01100000</v>
   <v name="DARWINR">      0.00000000</v>
   <v name="DARWINV">      1.00000000</v>
   <i type="logical" name="LCORR"> T  </i>
  </separator>
  <i type="logical" name="GGA_COMPAT"> T  </i>
  <i type="logical" name="LBERRY"> F  </i>
  <i type="int" name="ICORELEVEL">     0</i>
  <i type="logical" name="LDAU"> F  </i>
  <i type="int" name="I_CONSTRAINED_M">     0</i>
  <separator name="electronic exchange-correlation" >
   <i type="string" name="GGA">--</i>
   <i type="int" name="VOSKOWN">     0</i>
   <i type="logical" name="LHFCALC"> F  </i>
   <i type="string" name="PRECFOCK"></i>
   <i type="logical" name="LSYMGRAD"> F  </i>
   <i type="logical" name="LHFONE"> F  </i>
   <i type="logical" name="LRHFCALC"> F  </i>
   <i type="logical" name="LTHOMAS"> F  </i>
   <i type="logical" name="LMODELHF"> F  </i>
   <i type="logical" name="LFOCKACE"> F  </i>
   <i name="ENCUT4O">     -1.00000000</i>
   <i type="int" name="EXXOEP">     0</i>
   <i type="int" name="FOURORBIT">     0</i>
   <i name="AEXX">      0.00000000</i>
   <i name="HFALPHA">      0.00000000</i>
   <i name="MCALPHA">      0.00000000</i>
   <i name="ALDAX">      1.00000000</i>
   <i name="AGGAX">      1.00000000</i>
   <i name="ALDAC">      1.00000000</i>
   <i name="AGGAC">      1.00000000</i>
   <i type="int" name="NKREDX">     1</i>
   <i type="int" name="NKREDY">     1</i>
   <i type="int" name="NKREDZ">     1</i>
   <i type="logical" name="SHIFTRED"> F  </i>
   <i type="logical" name="ODDONLY"> F  </i>
   <i type="logical" name="EVENONLY"> F  </i>
   <i type="int" name="LMAXFOCK">     0</i>
   <i type="int" name="NMAXFOCKAE">     0</i>
   <i type="logical" name="LFOCKAEDFT"> F  </i>
   <i name="HFSCREEN">      0.00000000</i>
   <i name="HFSCREENC">      0.00000000</i>
   <i type="int" name="NBANDSGWLOW">     0</i>
  </separator>
  <separator name="vdW DFT" >
   <i type="logical" name="LUSE_VDW"> F  </i>
   <i name="Zab_VDW">     -0.84910000</i>
   <i name="PARAM1">      0.12340000</i>
   <i name="PARAM2">      1.00000000</i>
   <i name="PARAM3">      0.00000000</i>
  </separator>
  <separator name="model GW" >
   <i type="int" name="MODEL_GW">     0</i>
   <i name="MODEL_EPS0">      3.55261342</i>
   <i name="MODEL_ALPHA">      1.00000000</i>
  </separator>
  <separator name="linear response parameters" >
   <i type="logical" name="LEPSILON"> F  </i>
   <i type="logical" name="LRPA"> F  </i>
   <i type="logical" name="LNABLA"> F  </i>
   <i type="logical" name="LVEL"> F  </i>
   <i type="int" name="KINTER">     0</i>
   <i name="CSHIFT">      0.10000000</i>
   <i name="OMEGAMAX">     -1.00000000</i>
   <i name="DEG_THRESHOLD">      0.00200000</i>
   <i name="RTIME">     -0.10000000</i>
   <i name="WPLASMAI">      0.00000000</i>
   <v name="DFIELD">      0.00000000      0.00000000      0.00000000</v>
   <v name="WPLASMA">      0.00000000      0.00000000      0.00000000      0.00000000      0.00000000      0.00000000      0.00000000      0.00000000      0.00000000</v>
  </separator>
  <separator name="orbital magnetization" >
   <i type="logical" name="NUCIND"> F  </i>
   <v name="MAGPOS">      0.00000000      0.00000000      0.00000000</v>
   <i type="logical" name="LNICSALL"> T  </i>
   <i type="logical" name="ORBITALMAG"> F  </i>
   <i type="logical" name="LMAGBLOCH"> F  </i>
   <i type="logical" name="LCHIMAG"> F  </i>
   <i type="logical" name="LGAUGE"> T  </i>
   <i type="int" name="MAGATOM">     0</i>
   <v name="MAGDIPOL">      0.00000000      0.00000000      0.00000000</v>
   <v name="AVECCONST">      0.00000000      0.00000000      0.00000000</v>
  </separator>
  <separator name="response functions" >
   <i type="logical" name="LFINITE_TEMPERATURE"> F  </i>
   <i type="logical" name="LADDER"> F  </i>
   <i type="logical" name="LRPAFORCE"> F  </i>
   <i type="logical" name="LFXC"> F  </i>
   <i type="logical" name="LHARTREE"> T  </i>
   <i type="int" name="IBSE">     0</i>
   <v type="int" name="KPOINT">    -1     0     0     0</v>
   <i type="logical" name="LTCTC"> F  </i>
   <i type="logical" name="LTCTE"> F  </i>
   <i type="logical" name="LTETE"> F  </i>
   <i type="logical" name="LTRIPLET"> F  </i>
   <i type="logical" name="LFXCEPS"> F  </i>
   <i type="logical" name="LFXHEG"> F  </i>
   <i type="int" name="NATURALO">     2</i>
   <i type="logical" name="LHOLEGF"> F  </i>
   <i type="logical" name="L2ORDER"> F  </i>
   <i type="logical" name="LDMP1"> F  </i>
   <i type="logical" name="LMP2LT"> F  </i>
   <i type="logical" name="LSMP2LT"> F  </i>
   <i type="logical" name="LGWLF"> F  </i>
   <i name="ENCUTGW">     -2.00000000</i>
   <i name="ENCUTGWSOFT">     -2.00000000</i>
   <i name="ENCUTLF">     -1.00000000</i>
   <i type="logical" name="LESF_SPLINES"> F  </i>
   <i type="int" name="LMAXMP2">    -1</i>
   <i name="SCISSOR">      0.00000000</i>
   <i type="int" name="NOMEGA">     0</i>
   <i type="int" name="NOMEGAR">     0</i>
   <i type="int" name="NBANDSGW">    -1</i>
   <i type="int" name="NBANDSO">    -1</i>
   <i type="int" name="NBANDSV">    -1</i>
   <i type="int" name="NELM">     1</i>
   <i type="int" name="NELMHF">     1</i>
   <i type="int" name="DIM">     3</i>
   <i type="int" name="IESPILON">     4</i>
   <i type="int" name="ANTIRES">     0</i>
   <i name="OMEGAMAX">    -30.00000000</i>
   <i name="OMEGAMIN">    -30.00000000</i>
   <i name="OMEGATL">   -200.00000000</i>
   <i type="int" name="OMEGAGRID">     0</i>
   <i name="CSHIFT">     -0.10000000</i>
   <i type="logical" name="LSELFENERGY"> F  </i>
   <i type="logical" name="LSPECTRAL"> F  </i>
   <i type="logical" name="LSPECTRALGW"> F  </i>
   <i type="logical" name="LSINGLES"> F  </i>
   <i type="logical" name="LFERMIGW"> F  </i>
   <i type="logical" name="ODDONLYGW"> F  </i>
   <i type="logical" name="EVENONLYGW"> F  </i>
   <i type="int" name="NKREDLFX">     1</i>
   <i type="int" name="NKREDLFY">     1</i>
   <i type="int" name="NKREDLFZ">     1</i>
   <i type="int" name="MAXMEM">  2800</i>
   <i type="int" name="TELESCOPE">     0</i>
   <i type="int" name="NTAUPAR">    -1</i>
   <i type="int" name="NOMEGAPAR">    -1</i>
   <i name="DAMP_NEWTON">      0.80000001</i>
   <i name="LAMBDA">      1.00000000</i>
  </separator>
  <separator name="External order field" >
   <i name="OFIELD_KAPPA">      0.00000000</i>
   <v name="OFIELD_K">      0.00000000      0.00000000      0.00000000</v>
   <i name="OFIELD_Q6_NEAR">      0.00000000</i>
   <i name="OFIELD_Q6_FAR">      0.00000000</i>
   <i name="OFIELD_A">      0.00000000</i>
  </separator>
 </parameters>
 <atominfo>
  <atoms>       8 </atoms>
  <types>       1 </types>
  <array name="atoms" >
   <dimension dim="1">ion</dimension>
   <field type="string">element</field>
   <field type="int">atomtype</field>
   <set>
    <rc><c>C </c><c>   1</c></rc>
    <rc><c>C </c><c>   1</c></rc>
    <rc><c>C </c><c>   1</c></rc>
    <rc><c>C </c><c>   1</c></rc>
    <rc><c>C </c><c>   1</c></rc>
    <rc><c>C </c><c>   1</c></rc>
    <rc><c>C </c><c>   1</c></rc>
    <rc><c>C </c><c>   1</c></rc>
   </set>
  </array>
  <array name="atomtypes" >
   <dimension dim="1">type</dimension>
   <field type="int">atomspertype</field>
   <field type="string">element</field>
   <field>mass</field>
   <field>valence</field>
   <field type="string">pseudopotential</field>
   <set>
    <rc><c>   8</c><c>C </c><c>     12.01100000</c><c>      4.00000000</c><c>  PAW_PBE C 08Apr2002                   </c></rc>
   </set>
  </array>
 </atominfo>
 <structure name="initialpos" >
  <crystal>
   <varray name="basis" >
    <v>       2.01775732       1.28774932      -1.92993038 </v>
    <v>       2.91286982      -0.49723940       3.00617203 </v>
    <v>       0.35035770      -3.28227976      -1.67991290 </v>
   </varray>
   <i name="volume">     47.36817889 </i>
   <varray name="rec_basis" >
    <v>       0.22594106       0.12554004      -0.19816346 </v>
    <v>       0.17940057      -0.05728509       0.14934112 </v>
    <v>       0.06146655      -0.24673445      -0.10037022 </v>
   </varray>
  </crystal>
  <varray name="positions" >
   <v>       0.12500000       0.12500000       0.62500000 </v>
   <v>       0.37500000       0.37500000       0.87500000 </v>
   <v>       0.12500000       0.62500000       0.12500000 </v>
   <v>       0.37500000       0.87500000       0.37500000 </v>
   <v>       0.62500000       0.12500000       0.12500000 </v>
   <v>       0.87500000       0.37500000       0.37500000 </v>
   <v>       0.62500000       0.62500000       0.62500000 </v>
   <v>       0.87500000       0.87500000       0.87500000 </v>
  </varray>
  <varray name="selective"  type="logical" >
   <v type="logical" >  T  T  T </v>
   <v type="logical" >  T  T  T </v>
   <v type="logical" >  T  T  T </v>
   <v type="logical" >  T  T  T </v>
   <v type="logical" >  T  T  T </v>
   <v type="logical" >  T  T  T </v>
   <v type="logical" >  T  T  T </v>
   <v type="logical" >  T  T  T </v>
  </varray>
  <nose>
   <v>      -3.00000000       0.00000000       0.00010000       0.00010000 </v>
  </nose>
 </structure>
 <calculation>
  <scstep>
   <time name="dav">    0.53    0.53</time>
   <time name="total">    0.59    0.59</time>
   <energy>
    <i name="alphaZ">    110.98990814 </i>
    <i name="ewald">  -1379.98493319 </i>
    <i name="hartreedc">    -70.21045982 </i>
    <i name="XCdc">    108.28603273 </i>
    <i name="pawpsdc">    868.17637104 </i>
    <i name="pawaedc">   -872.73161751 </i>
    <i name="eentropy">     -0.00510585 </i>
    <i name="bandstr">    151.58838153 </i>
    <i name="atom">   1177.20230207 </i>
    <i name="e_fr_energy">     93.31087913 </i>
    <i name="e_wo_entrp">     93.31598498 </i>
    <i name="e_0_energy">     93.31343205 </i>
   </energy>
  </scstep>
  <scstep>
   <time name="dav">    0.62    0.62</time>
   <time name="total">    0.62    0.62</time>
   <energy>
    <i name="e_fr_energy">    -61.06752639 </i>
    <i name="e_wo_entrp">    -61.06489923 </i>
    <i name="e_0_energy">    -61.06621281 </i>
   </energy>
  </scstep>
  <scstep>
   <time name="dav">    0.62    0.62</time>
   <time name="total">    0.62    0.62</time>
   <energy>
    <i name="e_fr_energy">    -67.53002649 </i>
    <i name="e_wo_entrp">    -67.52371820 </i>
    <i name="e_0_energy">    -67.52687234 </i>
   </energy>
  </scstep>
  <scstep>
   <time name="dav">    0.79    0.79</time>
   <time name="total">    0.79    0.79</time>
   <energy>
    <i name="e_fr_energy">    -67.62960661 </i>
    <i name="e_wo_entrp">    -67.62346775 </i>
    <i name="e_0_energy">    -67.62653718 </i>
   </energy>
  </scstep>
  <scstep>
   <time name="dav">    0.94    0.94</time>
   <time name="total">    1.01    1.01</time>
   <energy>
    <i name="e_fr_energy">    -67.63172657 </i>
    <i name="e_wo_entrp">    -67.62559969 </i>
    <i name="e_0_energy">    -67.62866313 </i>
   </energy>
  </scstep>
  <scstep>
   <time name="dav">    0.76    0.76</time>
   <time name="total">    0.86    0.86</time>
   <energy>
    <i name="e_fr_energy">    -66.06169957 </i>
    <i name="e_wo_entrp">    -66.06091686 </i>
    <i name="e_0_energy">    -66.06130821 </i>
   </energy>
  </scstep>
  <scstep>
   <time name="dav">    0.58    0.58</time>
   <time name="total">    0.66    0.66</time>
   <energy>
    <i name="e_fr_energy">    -65.56714243 </i>
    <i name="e_wo_entrp">    -65.56269759 </i>
    <i name="e_0_energy">    -65.56492001 </i>
   </energy>
  </scstep>
  <scstep>
   <time name="dav">    0.60    0.60</time>
   <time name="total">    0.68    0.68</time>
   <energy>
    <i name="e_fr_energy">    -65.57392640 </i>
    <i name="e_wo_entrp">    -65.56988294 </i>
    <i name="e_0_energy">    -65.57190467 </i>
   </energy>
  </scstep>
  <scstep>
   <time name="dav">    0.76    0.76</time>
   <time name="total">    0.86    0.86</time>
   <energy>
    <i name="e_fr_energy">    -65.57384306 </i>
    <i name="e_wo_entrp">    -65.56997828 </i>
    <i name="e_0_energy">    -65.57191067 </i>
   </energy>
  </scstep>
  <scstep>
   <time name="dav">    0.83    0.83</time>
   <time name="total">    0.94    0.94</time>
   <energy>
    <i name="e_fr_energy">    -65.57390592 </i>
    <i name="e_wo_entrp">    -65.57007050 </i>
    <i name="e_0_energy">    -65.57198821 </i>
   </energy>
  </scstep>
  <scstep>
   <time name="dav">    0.71    0.71</time>
   <time name="total">    0.80    0.80</time>
   <energy>
    <i name="e_fr_energy">    -65.57390867 </i>
    <i name="e_wo_entrp">    -65.57007469 </i>
    <i name="e_0_energy">    -65.57199168 </i>
   </energy>
  </scstep>
  <scstep>
   <time name="dav">    0.47    0.47</time>
   <time name="total">    0.51    0.51</time>
   <energy>
    <i name="alphaZ">    110.98990814 </i>
    <i name="ewald">  -1379.98493319 </i>
    <i name="hartreedc">    -99.98800691 </i>
    <i name="XCdc">    111.00858814 </i>
    <i name="pawpsdc">   2690.48533794 </i>
    <i name="pawaedc">  -2695.73439945 </i>
    <i name="eentropy">     -0.00383458 </i>
    <i name="bandstr">     20.45112908 </i>
    <i name="atom">   1177.20230207 </i>
    <i name="e_fr_energy">    -65.57390875 </i>
    <i name="e_wo_entrp">    -65.57007418 </i>
    <i name="e_0_energy">    -65.57199146 </i>
   </energy>
  </scstep>
  <structure>
   <crystal>
    <varray name="basis" >
     <v>       2.01775732       1.28774932      -1.92993038 </v>
     <v>       2.91286982      -0.49723940       3.00617203 </v>
     <v>       0.35035770      -3.28227976      -1.67991290 </v>
    </varray>
    <i name="volume">     47.36817889 </i>
    <varray name="rec_basis" >
     <v>       0.22594106       0.12554004      -0.19816346 </v>
     <v>       0.17940057      -0.05728509       0.14934112 </v>
     <v>       0.06146655      -0.24673445      -0.10037022 </v>
    </varray>
   </crystal>
   <varray name="positions" >
    <v>       0.12500000       0.12500000       0.62500000 </v>
    <v>       0.37500000       0.37500000       0.87500000 </v>
    <v>       0.12500000       0.62500000       0.12500000 </v>
    <v>       0.37500000       0.87500000       0.37500000 </v>
    <v>       0.62500000       0.12500000       0.12500000 </v>
    <v>       0.87500000       0.37500000       0.37500000 </v>
    <v>       0.62500000       0.62500000       0.62500000 </v>
    <v>       0.87500000       0.87500000       0.87500000 </v>
   </varray>
  </structure>
  <varray name="forces" >
   <v>      -0.72326199       0.09517689      -0.07474597 </v>
   <v>       0.72326199      -0.09517689       0.07474597 </v>
   <v>      -0.72326199       0.09517689      -0.07474597 </v>
   <v>       0.72326199      -0.09517689       0.07474597 </v>
   <v>      -0.72326199       0.09517689      -0.07474597 </v>
   <v>       0.72326199      -0.09517689       0.07474597 </v>
   <v>      -0.72326199       0.09517689      -0.07474597 </v>
   <v>       0.72326199      -0.09517689       0.07474597 </v>
  </varray>
  <varray name="stress" >
   <v>     106.56142689      24.90324411   -1156.38911345 </v>
   <v>      24.90324388     287.91984537     -32.82423875 </v>
   <v>   -1156.38911362     -32.82423883    -524.64248137 </v>
  </varray>
  <energy>
   <i name="e_fr_energy">    -65.57390875 </i>
   <i name="e_wo_entrp">    -65.57007418 </i>
   <i name="e_0_energy">    -65.57199146 </i>
  </energy>
  <time name="totalsc">    9.46    9.46</time>
 </calculation>
 <calculation>
  <scstep>
   <time name="dav">    0.58    0.58</time>
   <time name="total">    0.68    0.68</time>
   <energy>
    <i name="alphaZ">    110.98990814 </i>
    <i name="ewald">  -1384.29441536 </i>
    <i name="hartreedc">    -97.83176451 </i>
    <i name="XCdc">    110.87794352 </i>
    <i name="pawpsdc">   2690.48694371 </i>
    <i name="pawaedc">  -2695.73594598 </i>
    <i name="eentropy">     -0.00165677 </i>
    <i name="bandstr">     22.79790368 </i>
    <i name="atom">   1177.20230207 </i>
    <i name="e_fr_energy">    -65.50878149 </i>
    <i name="e_wo_entrp">    -65.50712472 </i>
    <i name="e_0_energy">    -65.50795310 </i>
   </energy>
  </scstep>
  <scstep>
   <time name="dav">    0.85    0.85</time>
   <time name="total">    0.96    0.96</time>
   <energy>
    <i name="e_fr_energy">    -65.53247916 </i>
    <i name="e_wo_entrp">    -65.53035782 </i>
    <i name="e_0_energy">    -65.53141849 </i>
   </energy>
  </scstep>
  <scstep>
   <time name="dav">    0.94    0.94</time>
   <time name="total">    1.07    1.07</time>
   <energy>
    <i name="e_fr_energy">    -65.52082429 </i>
    <i name="e_wo_entrp">    -65.51820406 </i>
    <i name="e_0_energy">    -65.51951417 </i>
   </energy>
  </scstep>
  <scstep>
   <time name="dav">    0.78    0.78</time>
   <time name="total">    0.89    0.89</time>
   <energy>
    <i name="e_fr_energy">    -65.52080018 </i>
    <i name="e_wo_entrp">    -65.51806147 </i>
    <i name="e_0_energy">    -65.51943082 </i>
   </energy>
  </scstep>
  <scstep>
   <time name="dav">    0.60    0.60</time>
   <time name="total">    0.68    0.68</time>
   <energy>
    <i name="e_fr_energy">    -65.52081719 </i>
    <i name="e_wo_entrp">    -65.51811099 </i>
    <i name="e_0_energy">    -65.51946409 </i>
   </energy>
  </scstep>
  <scstep>
   <time name="dav">    0.69    0.69</time>
   <time name="total">    0.79    0.79</time>
   <energy>
    <i name="e_fr_energy">    -65.52080002 </i>
    <i name="e_wo_entrp">    -65.51806568 </i>
    <i name="e_0_energy">    -65.51943285 </i>
   </energy>
  </scstep>
  <scstep>
   <time name="dav">    0.79    0.79</time>
   <time name="total">    0.83    0.83</time>
   <energy>
    <i name="alphaZ">    110.98990814 </i>
    <i name="ewald">  -1384.29441536 </i>
    <i name="hartreedc">    -96.94064759 </i>
    <i name="XCdc">    110.79871581 </i>
    <i name="pawpsdc">   2627.80549262 </i>
    <i name="pawaedc">  -2633.02141469 </i>
    <i name="eentropy">     -0.00273223 </i>
    <i name="bandstr">     21.94199128 </i>
    <i name="atom">   1177.20230207 </i>
    <i name="e_fr_energy">    -65.52079994 </i>
    <i name="e_wo_entrp">    -65.51806771 </i>
    <i name="e_0_energy">    -65.51943383 </i>
   </energy>
  </scstep>
  <structure>
   <crystal>
    <varray name="basis" >
     <v>       2.01775732       1.28774932      -1.92993038 </v>
     <v>       2.91286982      -0.49723940       3.00617203 </v>
     <v>       0.35035770      -3.28227976      -1.67991290 </v>
    </varray>
    <i name="volume">     47.36817889 </i>
    <varray name="rec_basis" >
     <v>       0.22594106       0.12554004      -0.19816346 </v>
     <v>       0.17940057      -0.05728509       0.14934112 </v>
     <v>       0.06146655      -0.24673445      -0.10037022 </v>
    </varray>
   </crystal>
   <varray name="positions" >
    <v>       0.11840744       0.11793880       0.62208433 </v>
    <v>       0.38159256       0.38206120       0.87791567 </v>
    <v>       0.11840744       0.61793880       0.12208433 </v>
    <v>       0.38159256       0.88206120       0.37791567 </v>
    <v>       0.61840744       0.11793880       0.12208433 </v>
    <v>       0.88159256       0.38206120       0.37791567 </v>
    <v>       0.61840744       0.61793880       0.62208433 </v>
    <v>       0.88159256       0.88206120       0.87791567 </v>
   </varray>
  </structure>
  <varray name="forces" >
   <v>       1.03994257      -0.73965111      -0.74243541 </v>
   <v>      -1.03994257       0.73965111       0.74243541 </v>
   <v>       1.03994257      -0.73965111      -0.74243541 </v>
   <v>      -1.03994257       0.73965111       0.74243541 </v>
   <v>       1.03994257      -0.73965111      -0.74243541 </v>
   <v>      -1.03994257       0.73965111       0.74243541 </v>
   <v>       1.03994257      -0.73965111      -0.74243541 </v>
   <v>      -1.03994257       0.73965111       0.74243541 </v>
  </varray>
  <varray name="stress" >
   <v>     -22.87745935      67.04087210   -1081.65547442 </v>
   <v>      67.04087251     269.44748545     -44.25997528 </v>
   <v>   -1081.65547434     -44.25997523    -502.29614259 </v>
  </varray>
  <energy>
   <i name="e_fr_energy">    -65.52079994 </i>
   <i name="e_wo_entrp">    -65.51806771 </i>
   <i name="e_0_energy">    -65.51943383 </i>
  </energy>
  <time name="totalsc">    6.72    6.72</time>
 </calculation>
 <calculation>
  <scstep>
   <time name="dav">    0.62    0.62</time>
   <time name="total">    0.71    0.71</time>
   <energy>
    <i name="alphaZ">    110.98990814 </i>
    <i name="ewald">  -1381.92853726 </i>
    <i name="hartreedc">    -98.05103296 </i>
    <i name="XCdc">    110.86551522 </i>
    <i name="pawpsdc">   2628.05304893 </i>
    <i name="pawaedc">  -2633.26899487 </i>
    <i name="eentropy">     -0.00525618 </i>
    <i name="bandstr">     20.53480750 </i>
    <i name="atom">   1177.20230207 </i>
    <i name="e_fr_energy">    -65.60823941 </i>
    <i name="e_wo_entrp">    -65.60298323 </i>
    <i name="e_0_energy">    -65.60561132 </i>
   </energy>
  </scstep>
  <scstep>
   <time name="dav">    0.62    0.62</time>
   <time name="total">    0.70    0.70</time>
   <energy>
    <i name="e_fr_energy">    -65.61459701 </i>
    <i name="e_wo_entrp">    -65.60925533 </i>
    <i name="e_0_energy">    -65.61192617 </i>
   </energy>
  </scstep>
  <scstep>
   <time name="dav">    0.62    0.62</time>
   <time name="total">    0.71    0.71</time>
   <energy>
    <i name="e_fr_energy">    -65.61030188 </i>
    <i name="e_wo_entrp">    -65.60459076 </i>
    <i name="e_0_energy">    -65.60744632 </i>
   </energy>
  </scstep>
  <scstep>
   <time name="dav">    0.96    0.96</time>
   <time name="total">    1.08    1.08</time>
   <energy>
    <i name="e_fr_energy">    -65.61030399 </i>
    <i name="e_wo_entrp">    -65.60466251 </i>
    <i name="e_0_energy">    -65.60748325 </i>
   </energy>
  </scstep>
  <scstep>
   <time name="dav">    0.89    0.89</time>
   <time name="total">    0.99    0.99</time>
   <energy>
    <i name="e_fr_energy">    -65.61030233 </i>
    <i name="e_wo_entrp">    -65.60465928 </i>
    <i name="e_0_energy">    -65.60748080 </i>
   </energy>
  </scstep>
  <scstep>
   <time name="dav">    0.59    0.59</time>
   <time name="total">    0.67    0.67</time>
   <energy>
    <i name="e_fr_energy">    -65.61030051 </i>
    <i name="e_wo_entrp">    -65.60466505 </i>
    <i name="e_0_energy">    -65.60748278 </i>
   </energy>
  </scstep>
  <scstep>
   <time name="dav">    0.41    0.41</time>
   <time name="total">    0.45    0.45</time>
   <energy>
    <i name="alphaZ">    110.98990814 </i>
    <i name="ewald">  -1381.92853726 </i>
    <i name="hartreedc">    -98.70823365 </i>
    <i name="XCdc">    110.92089026 </i>
    <i name="pawpsdc">   2663.06871979 </i>
    <i name="pawaedc">  -2668.30337431 </i>
    <i name="eentropy">     -0.00563520 </i>
    <i name="bandstr">     21.15365959 </i>
    <i name="atom">   1177.20230207 </i>
    <i name="e_fr_energy">    -65.61030057 </i>
    <i name="e_wo_entrp">    -65.60466537 </i>
    <i name="e_0_energy">    -65.60748297 </i>
   </energy>
  </scstep>
  <structure>
   <crystal>
    <varray name="basis" >
     <v>       2.01775732       1.28774932      -1.92993038 </v>
     <v>       2.91286982      -0.49723940       3.00617203 </v>
     <v>       0.35035770      -3.28227976      -1.67991290 </v>
    </varray>
    <i name="volume">     47.36817889 </i>
    <varray name="rec_basis" >
     <v>       0.22594106       0.12554004      -0.19816346 </v>
     <v>       0.17940057      -0.05728509       0.14934112 </v>
     <v>       0.06146655      -0.24673445      -0.10037022 </v>
    </varray>
   </crystal>
   <varray name="positions" >
    <v>       0.12244811       0.12226671       0.62387139 </v>
    <v>       0.37755189       0.37773329       0.87612861 </v>
    <v>       0.12244811       0.62226671       0.12387139 </v>
    <v>       0.37755189       0.87773329       0.37612861 </v>
    <v>       0.62244811       0.12226671       0.12387139 </v>
    <v>       0.87755189       0.37773329       0.37612861 </v>
    <v>       0.62244811       0.62226671       0.62387139 </v>
    <v>       0.87755189       0.87773329       0.87612861 </v>
   </varray>
  </structure>
  <varray name="forces" >
   <v>       0.04207285      -0.25450717      -0.35959621 </v>
   <v>      -0.04207285       0.25450717       0.35959621 </v>
   <v>       0.04207285      -0.25450717      -0.35959621 </v>
   <v>      -0.04207285       0.25450717       0.35959621 </v>
   <v>       0.04207285      -0.25450717      -0.35959621 </v>
   <v>      -0.04207285       0.25450717       0.35959621 </v>
   <v>       0.04207285      -0.25450717      -0.35959621 </v>
   <v>      -0.04207285       0.25450717       0.35959621 </v>
  </varray>
  <varray name="stress" >
   <v>      42.45475586      45.24786725   -1131.01655149 </v>
   <v>      45.24786722     276.49038925     -31.89931968 </v>
   <v>   -1131.01655129     -31.89931964    -509.66984568 </v>
  </varray>
  <energy>
   <i name="e_fr_energy">    -65.61030057 </i>
   <i name="e_wo_entrp">    -65.60466537 </i>
   <i name="e_0_energy">    -65.60748297 </i>
  </energy>
  <time name="totalsc">    5.84    5.84</time>
 </calculation>
 <calculation>
  <scstep>
   <time name="dav">    0.69    0.69</time>
   <time name="total">    0.78    0.79</time>
   <energy>
    <i name="alphaZ">    110.98990814 </i>
    <i name="ewald">  -1381.46630009 </i>
    <i name="hartreedc">    -98.89095827 </i>
    <i name="XCdc">    110.93289540 </i>
    <i name="pawpsdc">   2663.07389490 </i>
    <i name="pawaedc">  -2668.30853486 </i>
    <i name="eentropy">     -0.00311692 </i>
    <i name="bandstr">     20.79510583 </i>
    <i name="atom">   1177.20230207 </i>
    <i name="e_fr_energy">    -65.67480380 </i>
    <i name="e_wo_entrp">    -65.67168689 </i>
    <i name="e_0_energy">    -65.67324535 </i>
   </energy>
  </scstep>
  <scstep>
   <time name="dav">    0.86    0.86</time>
   <time name="total">    0.98    0.98</time>
   <energy>
    <i name="e_fr_energy">    -65.68154870 </i>
    <i name="e_wo_entrp">    -65.67831439 </i>
    <i name="e_0_energy">    -65.67993154 </i>
   </energy>
  </scstep>
  <scstep>
   <time name="dav">    0.77    0.77</time>
   <time name="total">    0.87    0.87</time>
   <energy>
    <i name="e_fr_energy">    -65.67862839 </i>
    <i name="e_wo_entrp">    -65.67525843 </i>
    <i name="e_0_energy">    -65.67694341 </i>
   </energy>
  </scstep>
  <scstep>
   <time name="dav">    0.62    0.62</time>
   <time name="total">    0.70    0.70</time>
   <energy>
    <i name="e_fr_energy">    -65.67870025 </i>
    <i name="e_wo_entrp">    -65.67534130 </i>
    <i name="e_0_energy">    -65.67702078 </i>
   </energy>
  </scstep>
  <scstep>
   <time name="dav">    0.63    0.63</time>
   <time name="total">    0.72    0.72</time>
   <energy>
    <i name="e_fr_energy">    -65.67869782 </i>
    <i name="e_wo_entrp">    -65.67534365 </i>
    <i name="e_0_energy">    -65.67702074 </i>
   </energy>
  </scstep>
  <scstep>
   <time name="dav">    0.65    0.65</time>
   <time name="total">    0.71    0.71</time>
   <energy>
    <i name="alphaZ">    110.98990814 </i>
    <i name="ewald">  -1381.46630009 </i>
    <i name="hartreedc">    -98.71828350 </i>
    <i name="XCdc">    110.91732923 </i>
    <i name="pawpsdc">   2665.18413591 </i>
    <i name="pawaedc">  -2670.41530421 </i>
    <i name="eentropy">     -0.00335410 </i>
    <i name="bandstr">     20.63086801 </i>
    <i name="atom">   1177.20230207 </i>
    <i name="e_fr_energy">    -65.67869854 </i>
    <i name="e_wo_entrp">    -65.67534444 </i>
    <i name="e_0_energy">    -65.67702149 </i>
   </energy>
  </scstep>
  <structure>
   <crystal>
    <varray name="basis" >
     <v>       2.01775732       1.28774932      -1.92993038 </v>
     <v>       2.91286982      -0.49723940       3.00617203 </v>
     <v>       0.35035770      -3.28227976      -1.67991290 </v>
    </varray>
    <i name="volume">     47.36817889 </i>
    <varray name="rec_basis" >
     <v>       0.22594106       0.12554004      -0.19816346 </v>
     <v>       0.17940057      -0.05728509       0.14934112 </v>
     <v>       0.06146655      -0.24673445      -0.10037022 </v>
    </varray>
   </crystal>
   <varray name="positions" >
    <v>       0.12210887       0.11835368       0.62710283 </v>
    <v>       0.37789113       0.38164632       0.87289717 </v>
    <v>       0.12210887       0.61835368       0.12710283 </v>
    <v>       0.37789113       0.88164632       0.37289717 </v>
    <v>       0.62210887       0.11835368       0.12710283 </v>
    <v>       0.87789113       0.38164632       0.37289717 </v>
    <v>       0.62210887       0.61835368       0.62710283 </v>
    <v>       0.87789113       0.88164632       0.87289717 </v>
   </varray>
  </structure>
  <varray name="forces" >
   <v>       0.16331258      -0.13597582      -0.39334409 </v>
   <v>      -0.16331258       0.13597582       0.39334409 </v>
   <v>       0.16331258      -0.13597582      -0.39334409 </v>
   <v>      -0.16331258       0.13597582       0.39334409 </v>
   <v>       0.16331258      -0.13597582      -0.39334409 </v>
   <v>      -0.16331258       0.13597582       0.39334409 </v>
   <v>       0.16331258      -0.13597582      -0.39334409 </v>
   <v>      -0.16331258       0.13597582       0.39334409 </v>
  </varray>
  <varray name="stress" >
   <v>      -7.05054271      45.11117258   -1094.38814801 </v>
   <v>      45.11117256     253.13436216     -27.57748513 </v>
   <v>   -1094.38814765     -27.57748486    -434.33153736 </v>
  </varray>
  <energy>
   <i name="e_fr_energy">    -65.67869854 </i>
   <i name="e_wo_entrp">    -65.67534444 </i>
   <i name="e_0_energy">    -65.67702149 </i>
  </energy>
  <time name="totalsc">    5.50    5.50</time>
 </calculation>
 <calculation>
  <scstep>
   <time name="dav">    0.77    0.77</time>
   <time name="total">    0.87    0.87</time>
   <energy>
    <i name="alphaZ">    110.98990814 </i>
    <i name="ewald">  -1376.37307890 </i>
    <i name="hartreedc">   -100.43340045 </i>
    <i name="XCdc">    111.02824573 </i>
    <i name="pawpsdc">   2665.15857171 </i>
    <i name="pawaedc">  -2670.38970058 </i>
    <i name="eentropy">     -0.00590421 </i>
    <i name="bandstr">     17.28495464 </i>
    <i name="atom">   1177.20230207 </i>
    <i name="e_fr_energy">    -65.53810184 </i>
    <i name="e_wo_entrp">    -65.53219763 </i>
    <i name="e_0_energy">    -65.53514974 </i>
   </energy>
  </scstep>
  <scstep>
   <time name="dav">    0.64    0.64</time>
   <time name="total">    0.73    0.73</time>
   <energy>
    <i name="e_fr_energy">    -65.62633558 </i>
    <i name="e_wo_entrp">    -65.61998241 </i>
    <i name="e_0_energy">    -65.62315899 </i>
   </energy>
  </scstep>
  <scstep>
   <time name="dav">    0.59    0.59</time>
   <time name="total">    0.67    0.67</time>
   <energy>
    <i name="e_fr_energy">    -65.60334958 </i>
    <i name="e_wo_entrp">    -65.59654938 </i>
    <i name="e_0_energy">    -65.59994948 </i>
   </energy>
  </scstep>
  <scstep>
   <time name="dav">    0.72    0.72</time>
   <time name="total">    0.83    0.83</time>
   <energy>
    <i name="e_fr_energy">    -65.60253426 </i>
    <i name="e_wo_entrp">    -65.59551961 </i>
    <i name="e_0_energy">    -65.59902694 </i>
   </energy>
  </scstep>
  <scstep>
   <time name="dav">    0.89    0.89</time>
   <time name="total">    1.01    1.01</time>
   <energy>
    <i name="e_fr_energy">    -65.60266337 </i>
    <i name="e_wo_entrp">    -65.59572537 </i>
    <i name="e_0_energy">    -65.59919437 </i>
   </energy>
  </scstep>
  <scstep>
   <time name="dav">    0.84    0.84</time>
   <time name="total">    0.94    0.94</time>
   <energy>
    <i name="e_fr_energy">    -65.60262087 </i>
    <i name="e_wo_entrp">    -65.59564741 </i>
    <i name="e_0_energy">    -65.59913414 </i>
   </energy>
  </scstep>
  <scstep>
   <time name="dav">    0.62    0.62</time>
   <time name="total">    0.71    0.71</time>
   <energy>
    <i name="e_fr_energy">    -65.60262188 </i>
    <i name="e_wo_entrp">    -65.59564736 </i>
    <i name="e_0_energy">    -65.59913462 </i>
   </energy>
  </scstep>
  <scstep>
   <time name="dav">    0.46    0.46</time>
   <time name="total">    0.51    0.51</time>
   <energy>
    <i name="alphaZ">    110.98990814 </i>
    <i name="ewald">  -1376.37307890 </i>
    <i name="hartreedc">   -100.71621401 </i>
    <i name="XCdc">    111.04513182 </i>
    <i name="pawpsdc">   2727.61066072 </i>
    <i name="pawaedc">  -2732.85571136 </i>
    <i name="eentropy">     -0.00697165 </i>
    <i name="bandstr">     17.50135139 </i>
    <i name="atom">   1177.20230207 </i>
    <i name="e_fr_energy">    -65.60262178 </i>
    <i name="e_wo_entrp">    -65.59565013 </i>
    <i name="e_0_energy">    -65.59913595 </i>
   </energy>
  </scstep>
  <structure>
   <crystal>
    <varray name="basis" >
     <v>       2.01775732       1.28774932      -1.92993038 </v>
     <v>       2.91286982      -0.49723940       3.00617203 </v>
     <v>       0.35035770      -3.28227976      -1.67991290 </v>
    </varray>
    <i name="volume">     47.36817889 </i>
    <varray name="rec_basis" >
     <v>       0.22594106       0.12554004      -0.19816346 </v>
     <v>       0.17940057      -0.05728509       0.14934112 </v>
     <v>       0.06146655      -0.24673445      -0.10037022 </v>
    </varray>
   </crystal>
   <varray name="positions" >
    <v>       0.12109114       0.10661460       0.63679715 </v>
    <v>       0.37890886       0.39338540       0.86320285 </v>
    <v>       0.12109114       0.60661460       0.13679715 </v>
    <v>       0.37890886       0.89338540       0.36320285 </v>
    <v>       0.62109114       0.10661460       0.13679715 </v>
    <v>       0.87890886       0.39338540       0.36320285 </v>
    <v>       0.62109114       0.60661460       0.63679715 </v>
    <v>       0.87890886       0.89338540       0.86320285 </v>
   </varray>
  </structure>
  <varray name="forces" >
   <v>       1.37213827       0.83148876      -0.88324465 </v>
   <v>      -1.37213827      -0.83148876       0.88324465 </v>
   <v>       1.37213827       0.83148876      -0.88324465 </v>
   <v>      -1.37213827      -0.83148876       0.88324465 </v>
   <v>       1.37213827       0.83148876      -0.88324465 </v>
   <v>      -1.37213827      -0.83148876       0.88324465 </v>
   <v>       1.37213827       0.83148876      -0.88324465 </v>
   <v>      -1.37213827      -0.83148876       0.88324465 </v>
  </varray>
  <varray name="stress" >
   <v>    -144.22206945      74.94035257    -836.02506818 </v>
   <v>      74.94035244     134.57834893      28.16796023 </v>
   <v>    -836.02506802      28.16796009      -0.80652925 </v>
  </varray>
  <energy>
   <i name="e_fr_energy">    -65.60262178 </i>
   <i name="e_wo_entrp">    -65.59565013 </i>
   <i name="e_0_energy">    -65.59913595 </i>
  </energy>
  <time name="totalsc">    6.89    6.89</time>
 </calculation>
 <calculation>
  <scstep>
   <time name="dav">    0.77    0.77</time>
   <time name="total">    0.89    0.89</time>
   <energy>
    <i name="alphaZ">    110.98990814 </i>
    <i name="ewald">  -1379.99619277 </i>
    <i name="hartreedc">    -99.15421705 </i>
    <i name="XCdc">    110.94377277 </i>
    <i name="pawpsdc">   2727.63035201 </i>
    <i name="pawaedc">  -2732.87541634 </i>
    <i name="eentropy">     -0.00377038 </i>
    <i name="bandstr">     19.59138952 </i>
    <i name="atom">   1177.20230207 </i>
    <i name="e_fr_energy">    -65.67187204 </i>
    <i name="e_wo_entrp">    -65.66810166 </i>
    <i name="e_0_energy">    -65.66998685 </i>
   </energy>
  </scstep>
  <scstep>
   <time name="dav">    0.90    0.90</time>
   <time name="total">    1.01    1.01</time>
   <energy>
    <i name="e_fr_energy">    -65.69786119 </i>
    <i name="e_wo_entrp">    -65.69363546 </i>
    <i name="e_0_energy">    -65.69574833 </i>
   </energy>
  </scstep>
  <scstep>
   <time name="dav">    0.61    0.61</time>
   <time name="total">    0.70    0.70</time>
   <energy>
    <i name="e_fr_energy">    -65.68773527 </i>
    <i name="e_wo_entrp">    -65.68281082 </i>
    <i name="e_0_energy">    -65.68527305 </i>
   </energy>
  </scstep>
  <scstep>
   <time name="dav">    0.58    0.59</time>
   <time name="total">    0.67    0.67</time>
   <energy>
    <i name="e_fr_energy">    -65.68800069 </i>
    <i name="e_wo_entrp">    -65.68296365 </i>
    <i name="e_0_energy">    -65.68548217 </i>
   </energy>
  </scstep>
  <scstep>
   <time name="dav">    0.61    0.62</time>
   <time name="total">    0.71    0.71</time>
   <energy>
    <i name="e_fr_energy">    -65.68800689 </i>
    <i name="e_wo_entrp">    -65.68301718 </i>
    <i name="e_0_energy">    -65.68551204 </i>
   </energy>
  </scstep>
  <scstep>
   <time name="dav">    0.83    0.83</time>
   <time name="total">    0.95    0.95</time>
   <energy>
    <i name="e_fr_energy">    -65.68800009 </i>
    <i name="e_wo_entrp">    -65.68298533 </i>
    <i name="e_0_energy">    -65.68549271 </i>
   </energy>
  </scstep>
  <scstep>
   <time name="dav">    0.61    0.61</time>
   <time name="total">    0.66    0.66</time>
   <energy>
    <i name="alphaZ">    110.98990814 </i>
    <i name="ewald">  -1379.99619277 </i>
    <i name="hartreedc">    -99.45942573 </i>
    <i name="XCdc">    110.96794084 </i>
    <i name="pawpsdc">   2686.29717151 </i>
    <i name="pawaedc">  -2691.53442515 </i>
    <i name="eentropy">     -0.00501124 </i>
    <i name="bandstr">     19.84973213 </i>
    <i name="atom">   1177.20230207 </i>
    <i name="e_fr_energy">    -65.68800021 </i>
    <i name="e_wo_entrp">    -65.68298897 </i>
    <i name="e_0_energy">    -65.68549459 </i>
   </energy>
  </scstep>
  <structure>
   <crystal>
    <varray name="basis" >
     <v>       2.01775732       1.28774932      -1.92993038 </v>
     <v>       2.91286982      -0.49723940       3.00617203 </v>
     <v>       0.35035770      -3.28227976      -1.67991290 </v>
    </varray>
    <i name="volume">     47.36817889 </i>
    <varray name="rec_basis" >
     <v>       0.22594106       0.12554004      -0.19816346 </v>
     <v>       0.17940057      -0.05728509       0.14934112 </v>
     <v>       0.06146655      -0.24673445      -0.10037022 </v>
    </varray>
   </crystal>
   <varray name="positions" >
    <v>       0.12167414       0.11333924       0.63124384 </v>
    <v>       0.37832586       0.38666076       0.86875616 </v>
    <v>       0.12167414       0.61333924       0.13124384 </v>
    <v>       0.37832586       0.88666076       0.36875616 </v>
    <v>       0.62167414       0.11333924       0.13124384 </v>
    <v>       0.87832586       0.38666076       0.36875616 </v>
    <v>       0.62167414       0.61333924       0.63124384 </v>
    <v>       0.87832586       0.88666076       0.86875616 </v>
   </varray>
  </structure>
  <varray name="forces" >
   <v>       0.74720948       0.23356934      -0.38294096 </v>
   <v>      -0.74720948      -0.23356934       0.38294096 </v>
   <v>       0.74720948       0.23356934      -0.38294096 </v>
   <v>      -0.74720948      -0.23356934       0.38294096 </v>
   <v>       0.74720948       0.23356934      -0.38294096 </v>
   <v>      -0.74720948      -0.23356934       0.38294096 </v>
   <v>       0.74720948       0.23356934      -0.38294096 </v>
   <v>      -0.74720948      -0.23356934       0.38294096 </v>
  </varray>
  <varray name="stress" >
   <v>     -72.37212391      32.15214369   -1046.64151492 </v>
   <v>      32.15214350     213.50360815     -13.94997594 </v>
   <v>   -1046.64151515     -13.94997627    -274.02588898 </v>
  </varray>
  <energy>
   <i name="e_fr_energy">    -65.68800021 </i>
   <i name="e_wo_entrp">    -65.68298897 </i>
   <i name="e_0_energy">    -65.68549459 </i>
  </energy>
  <time name="totalsc">    6.26    6.26</time>
 </calculation>
 <calculation>
  <scstep>
   <time name="dav">    0.55    0.55</time>
   <time name="total">    0.63    0.63</time>
   <energy>
    <i name="alphaZ">    110.98990814 </i>
    <i name="ewald">  -1380.70614573 </i>
    <i name="hartreedc">    -99.15912690 </i>
    <i name="XCdc">    110.94860583 </i>
    <i name="pawpsdc">   2686.26600182 </i>
    <i name="pawaedc">  -2691.50325411 </i>
    <i name="eentropy">     -0.00383696 </i>
    <i name="bandstr">     20.27070987 </i>
    <i name="atom">   1177.20230207 </i>
    <i name="e_fr_energy">    -65.69483596 </i>
    <i name="e_wo_entrp">    -65.69099900 </i>
    <i name="e_0_energy">    -65.69291748 </i>
   </energy>
  </scstep>
  <scstep>
   <time name="dav">    0.63    0.63</time>
   <time name="total">    0.72    0.72</time>
   <energy>
    <i name="e_fr_energy">    -65.69737130 </i>
    <i name="e_wo_entrp">    -65.69351627 </i>
    <i name="e_0_energy">    -65.69544379 </i>
   </energy>
  </scstep>
  <scstep>
   <time name="dav">    0.76    0.77</time>
   <time name="total">    0.87    0.87</time>
   <energy>
    <i name="e_fr_energy">    -65.69680660 </i>
    <i name="e_wo_entrp">    -65.69292065 </i>
    <i name="e_0_energy">    -65.69486363 </i>
   </energy>
  </scstep>
  <scstep>
   <time name="dav">    0.87    0.87</time>
   <time name="total">    0.98    0.98</time>
   <energy>
    <i name="e_fr_energy">    -65.69682490 </i>
    <i name="e_wo_entrp">    -65.69294183 </i>
    <i name="e_0_energy">    -65.69488336 </i>
   </energy>
  </scstep>
  <scstep>
   <time name="dav">    0.73    0.73</time>
   <time name="total">    0.77    0.77</time>
   <energy>
    <i name="alphaZ">    110.98990814 </i>
    <i name="ewald">  -1380.70614573 </i>
    <i name="hartreedc">    -99.05365022 </i>
    <i name="XCdc">    110.93934914 </i>
    <i name="pawpsdc">   2675.46616697 </i>
    <i name="pawaedc">  -2680.69945608 </i>
    <i name="eentropy">     -0.00388102 </i>
    <i name="bandstr">     20.16858201 </i>
    <i name="atom">   1177.20230207 </i>
    <i name="e_fr_energy">    -65.69682472 </i>
    <i name="e_wo_entrp">    -65.69294371 </i>
    <i name="e_0_energy">    -65.69488421 </i>
   </energy>
  </scstep>
  <structure>
   <crystal>
    <varray name="basis" >
     <v>       2.01775732       1.28774932      -1.92993038 </v>
     <v>       2.91286982      -0.49723940       3.00617203 </v>
     <v>       0.35035770      -3.28227976      -1.67991290 </v>
    </varray>
    <i name="volume">     47.36817889 </i>
    <varray name="rec_basis" >
     <v>       0.22594106       0.12554004      -0.19816346 </v>
     <v>       0.17940057      -0.05728509       0.14934112 </v>
     <v>       0.06146655      -0.24673445      -0.10037022 </v>
    </varray>
   </crystal>
   <varray name="positions" >
    <v>       0.12184818       0.11534670       0.62958604 </v>
    <v>       0.37815182       0.38465330       0.87041396 </v>
    <v>       0.12184818       0.61534670       0.12958604 </v>
    <v>       0.37815182       0.88465330       0.37041396 </v>
    <v>       0.62184818       0.11534670       0.12958604 </v>
    <v>       0.87815182       0.38465330       0.37041396 </v>
    <v>       0.62184818       0.61534670       0.62958604 </v>
    <v>       0.87815182       0.88465330       0.87041396 </v>
   </varray>
  </structure>
  <varray name="forces" >
   <v>       0.48872171       0.04959086      -0.34421795 </v>
   <v>      -0.48872171      -0.04959086       0.34421795 </v>
   <v>       0.48872171       0.04959086      -0.34421795 </v>
   <v>      -0.48872171      -0.04959086       0.34421795 </v>
   <v>       0.48872171       0.04959086      -0.34421795 </v>
   <v>      -0.48872171      -0.04959086       0.34421795 </v>
   <v>       0.48872171       0.04959086      -0.34421795 </v>
   <v>      -0.48872171      -0.04959086       0.34421795 </v>
  </varray>
  <varray name="stress" >
   <v>     -47.50141398      38.79362405   -1067.94240453 </v>
   <v>      38.79362373     232.93680909     -19.12757285 </v>
   <v>   -1067.94240445     -19.12757309    -348.98728476 </v>
  </varray>
  <energy>
   <i name="e_fr_energy">    -65.69682472 </i>
   <i name="e_wo_entrp">    -65.69294371 </i>
   <i name="e_0_energy">    -65.69488421 </i>
  </energy>
  <time name="totalsc">    4.54    4.54</time>
 </calculation>
 <calculation>
  <scstep>
   <time name="dav">    0.52    0.52</time>
   <time name="total">    0.60    0.60</time>
   <energy>
    <i name="alphaZ">    110.98990814 </i>
    <i name="ewald">  -1378.13774105 </i>
    <i name="hartreedc">   -100.22089958 </i>
    <i name="XCdc">    111.01087010 </i>
    <i name="pawpsdc">   2675.20461650 </i>
    <i name="pawaedc">  -2680.43792425 </i>
    <i name="eentropy">     -0.00142219 </i>
    <i name="bandstr">     18.65952294 </i>
    <i name="atom">   1177.20230207 </i>
    <i name="e_fr_energy">    -65.73076731 </i>
    <i name="e_wo_entrp">    -65.72934513 </i>
    <i name="e_0_energy">    -65.73005622 </i>
   </energy>
  </scstep>
  <scstep>
   <time name="dav">    0.68    0.68</time>
   <time name="total">    0.78    0.78</time>
   <energy>
    <i name="e_fr_energy">    -65.73455227 </i>
    <i name="e_wo_entrp">    -65.73312335 </i>
    <i name="e_0_energy">    -65.73383781 </i>
   </energy>
  </scstep>
  <scstep>
   <time name="dav">    0.82    0.82</time>
   <time name="total">    0.93    0.93</time>
   <energy>
    <i name="e_fr_energy">    -65.73412066 </i>
    <i name="e_wo_entrp">    -65.73266351 </i>
    <i name="e_0_energy">    -65.73339208 </i>
   </energy>
  </scstep>
  <scstep>
   <time name="dav">    0.87    0.87</time>
   <time name="total">    0.97    0.97</time>
   <energy>
    <i name="e_fr_energy">    -65.73412290 </i>
    <i name="e_wo_entrp">    -65.73266876 </i>
    <i name="e_0_energy">    -65.73339583 </i>
   </energy>
  </scstep>
  <scstep>
   <time name="dav">    0.63    0.63</time>
   <time name="total">    0.67    0.67</time>
   <energy>
    <i name="alphaZ">    110.98990814 </i>
    <i name="ewald">  -1378.13774105 </i>
    <i name="hartreedc">   -100.62780705 </i>
    <i name="XCdc">    111.04574224 </i>
    <i name="pawpsdc">   2711.09963967 </i>
    <i name="pawaedc">  -2716.34757005 </i>
    <i name="eentropy">     -0.00145213 </i>
    <i name="bandstr">     19.04285430 </i>
    <i name="atom">   1177.20230207 </i>
    <i name="e_fr_energy">    -65.73412387 </i>
    <i name="e_wo_entrp">    -65.73267173 </i>
    <i name="e_0_energy">    -65.73339780 </i>
   </energy>
  </scstep>
  <structure>
   <crystal>
    <varray name="basis" >
     <v>       2.01775732       1.28774932      -1.92993038 </v>
     <v>       2.91286982      -0.49723940       3.00617203 </v>
     <v>       0.35035770      -3.28227976      -1.67991290 </v>
    </varray>
    <i name="volume">     47.36817889 </i>
    <varray name="rec_basis" >
     <v>       0.22594106       0.12554004      -0.19816346 </v>
     <v>       0.17940057      -0.05728509       0.14934112 </v>
     <v>       0.06146655      -0.24673445      -0.10037022 </v>
    </varray>
   </crystal>
   <varray name="positions" >
    <v>       0.12503816       0.11399781       0.63215316 </v>
    <v>       0.37496184       0.38600219       0.86784684 </v>
    <v>       0.12503816       0.61399781       0.13215316 </v>
    <v>       0.37496184       0.88600219       0.36784684 </v>
    <v>       0.62503816       0.11399781       0.13215316 </v>
    <v>       0.87496184       0.38600219       0.36784684 </v>
    <v>       0.62503816       0.61399781       0.63215316 </v>
    <v>       0.87496184       0.88600219       0.86784684 </v>
   </varray>
  </structure>
  <varray name="forces" >
   <v>       0.09159887       0.11291729      -0.19535451 </v>
   <v>      -0.09159887      -0.11291729       0.19535451 </v>
   <v>       0.09159887       0.11291729      -0.19535451 </v>
   <v>      -0.09159887      -0.11291729       0.19535451 </v>
   <v>       0.09159887       0.11291729      -0.19535451 </v>
   <v>      -0.09159887      -0.11291729       0.19535451 </v>
   <v>       0.09159887       0.11291729      -0.19535451 </v>
   <v>      -0.09159887      -0.11291729       0.19535451 </v>
  </varray>
  <varray name="stress" >
   <v>     -53.50666890      22.87793591   -1051.69875389 </v>
   <v>      22.87793605     212.41586163     -20.15199714 </v>
   <v>   -1051.69875377     -20.15199731    -243.66051135 </v>
  </varray>
  <energy>
   <i name="e_fr_energy">    -65.73412387 </i>
   <i name="e_wo_entrp">    -65.73267173 </i>
   <i name="e_0_energy">    -65.73339780 </i>
  </energy>
  <time name="totalsc">    4.54    4.54</time>
 </calculation>
 <calculation>
  <scstep>
   <time name="dav">    0.53    0.53</time>
   <time name="total">    0.64    0.64</time>
   <energy>
    <i name="alphaZ">    110.98990814 </i>
    <i name="ewald">  -1376.45779860 </i>
    <i name="hartreedc">   -101.37919661 </i>
    <i name="XCdc">    111.09170045 </i>
    <i name="pawpsdc">   2710.88868270 </i>
    <i name="pawaedc">  -2716.13649115 </i>
    <i name="eentropy">     -0.00209587 </i>
    <i name="bandstr">     18.06290989 </i>
    <i name="atom">   1177.20230207 </i>
    <i name="e_fr_energy">    -65.74007897 </i>
    <i name="e_wo_entrp">    -65.73798310 </i>
    <i name="e_0_energy">    -65.73903104 </i>
   </energy>
  </scstep>
  <scstep>
   <time name="dav">    0.88    0.88</time>
   <time name="total">    1.02    1.02</time>
   <energy>
    <i name="e_fr_energy">    -65.74154121 </i>
    <i name="e_wo_entrp">    -65.73946830 </i>
    <i name="e_0_energy">    -65.74050476 </i>
   </energy>
  </scstep>
  <scstep>
   <time name="dav">    0.84    0.84</time>
   <time name="total">    0.97    0.98</time>
   <energy>
    <i name="e_fr_energy">    -65.74138656 </i>
    <i name="e_wo_entrp">    -65.73933386 </i>
    <i name="e_0_energy">    -65.74036021 </i>
   </energy>
  </scstep>
  <scstep>
   <time name="dav">    0.61    0.61</time>
   <time name="total">    0.72    0.72</time>
   <energy>
    <i name="e_fr_energy">    -65.74139046 </i>
    <i name="e_wo_entrp">    -65.73933490 </i>
    <i name="e_0_energy">    -65.74036268 </i>
   </energy>
  </scstep>
  <scstep>
   <time name="dav">    0.46    0.46</time>
   <time name="total">    0.49    0.49</time>
   <energy>
    <i name="alphaZ">    110.98990814 </i>
    <i name="ewald">  -1376.45779860 </i>
    <i name="hartreedc">   -101.55619145 </i>
    <i name="XCdc">    111.10667141 </i>
    <i name="pawpsdc">   2733.03158399 </i>
    <i name="pawaedc">  -2738.28841549 </i>
    <i name="eentropy">     -0.00205812 </i>
    <i name="bandstr">     18.23260681 </i>
    <i name="atom">   1177.20230207 </i>
    <i name="e_fr_energy">    -65.74139124 </i>
    <i name="e_wo_entrp">    -65.73933312 </i>
    <i name="e_0_energy">    -65.74036218 </i>
   </energy>
  </scstep>
  <structure>
   <crystal>
    <varray name="basis" >
     <v>       2.01775732       1.28774932      -1.92993038 </v>
     <v>       2.91286982      -0.49723940       3.00617203 </v>
     <v>       0.35035770      -3.28227976      -1.67991290 </v>
    </varray>
    <i name="volume">     47.36817889 </i>
    <varray name="rec_basis" >
     <v>       0.22594106       0.12554004      -0.19816346 </v>
     <v>       0.17940057      -0.05728509       0.14934112 </v>
     <v>       0.06146655      -0.24673445      -0.10037022 </v>
    </varray>
   </crystal>
   <varray name="positions" >
    <v>       0.12708944       0.11313043       0.63380391 </v>
    <v>       0.37291056       0.38686957       0.86619609 </v>
    <v>       0.12708944       0.61313043       0.13380391 </v>
    <v>       0.37291056       0.88686957       0.36619609 </v>
    <v>       0.62708944       0.11313043       0.13380391 </v>
    <v>       0.87291056       0.38686957       0.36619609 </v>
    <v>       0.62708944       0.61313043       0.63380391 </v>
    <v>       0.87291056       0.88686957       0.86619609 </v>
   </varray>
  </structure>
  <varray name="forces" >
   <v>      -0.17936180       0.12440757      -0.08572761 </v>
   <v>       0.17936180      -0.12440757       0.08572761 </v>
   <v>      -0.17936180       0.12440757      -0.08572761 </v>
   <v>       0.17936180      -0.12440757       0.08572761 </v>
   <v>      -0.17936180       0.12440757      -0.08572761 </v>
   <v>       0.17936180      -0.12440757       0.08572761 </v>
   <v>      -0.17936180       0.12440757      -0.08572761 </v>
   <v>       0.17936180      -0.12440757       0.08572761 </v>
  </varray>
  <varray name="stress" >
   <v>     -58.53333531      18.89124257   -1039.49901754 </v>
   <v>      18.89124252     204.53386190     -12.03315562 </v>
   <v>   -1039.49901761     -12.03315597    -185.82842614 </v>
  </varray>
  <energy>
   <i name="e_fr_energy">    -65.74139124 </i>
   <i name="e_wo_entrp">    -65.73933312 </i>
   <i name="e_0_energy">    -65.74036218 </i>
  </energy>
  <time name="totalsc">    4.37    4.38</time>
 </calculation>
 <calculation>
  <scstep>
   <time name="dav">    0.66    0.66</time>
   <time name="total">    0.76    0.76</time>
   <energy>
    <i name="alphaZ">    110.98990814 </i>
    <i name="ewald">  -1375.58189402 </i>
    <i name="hartreedc">   -101.93644474 </i>
    <i name="XCdc">    111.13019576 </i>
    <i name="pawpsdc">   2732.96013736 </i>
    <i name="pawaedc">  -2738.21694025 </i>
    <i name="eentropy">     -0.00641826 </i>
    <i name="bandstr">     17.71161368 </i>
    <i name="atom">   1177.20230207 </i>
    <i name="e_fr_energy">    -65.74754025 </i>
    <i name="e_wo_entrp">    -65.74112199 </i>
    <i name="e_0_energy">    -65.74433112 </i>
   </energy>
  </scstep>
  <scstep>
   <time name="dav">    0.87    0.87</time>
   <time name="total">    0.99    0.99</time>
   <energy>
    <i name="e_fr_energy">    -65.74831710 </i>
    <i name="e_wo_entrp">    -65.74196231 </i>
    <i name="e_0_energy">    -65.74513970 </i>
   </energy>
  </scstep>
  <scstep>
   <time name="dav">    0.76    0.76</time>
   <time name="total">    0.86    0.86</time>
   <energy>
    <i name="e_fr_energy">    -65.74798054 </i>
    <i name="e_wo_entrp">    -65.74171017 </i>
    <i name="e_0_energy">    -65.74484535 </i>
   </energy>
  </scstep>
  <scstep>
   <time name="dav">    0.61    0.61</time>
   <time name="total">    0.70    0.70</time>
   <energy>
    <i name="e_fr_energy">    -65.74798878 </i>
    <i name="e_wo_entrp">    -65.74170823 </i>
    <i name="e_0_energy">    -65.74484851 </i>
   </energy>
  </scstep>
  <scstep>
   <time name="dav">    0.51    0.51</time>
   <time name="total">    0.54    0.54</time>
   <energy>
    <i name="alphaZ">    110.98990814 </i>
    <i name="ewald">  -1375.58189402 </i>
    <i name="hartreedc">   -101.93895394 </i>
    <i name="XCdc">    111.13025387 </i>
    <i name="pawpsdc">   2743.27486011 </i>
    <i name="pawaedc">  -2748.53448364 </i>
    <i name="eentropy">     -0.00628491 </i>
    <i name="bandstr">     17.71630273 </i>
    <i name="atom">   1177.20230207 </i>
    <i name="e_fr_energy">    -65.74798959 </i>
    <i name="e_wo_entrp">    -65.74170468 </i>
    <i name="e_0_energy">    -65.74484714 </i>
   </energy>
  </scstep>
  <structure>
   <crystal>
    <varray name="basis" >
     <v>       2.01775732       1.28774932      -1.92993038 </v>
     <v>       2.91286982      -0.49723940       3.00617203 </v>
     <v>       0.35035770      -3.28227976      -1.67991290 </v>
    </varray>
    <i name="volume">     47.36817889 </i>
    <varray name="rec_basis" >
     <v>       0.22594106       0.12554004      -0.19816346 </v>
     <v>       0.17940057      -0.05728509       0.14934112 </v>
     <v>       0.06146655      -0.24673445      -0.10037022 </v>
    </varray>
   </crystal>
   <varray name="positions" >
    <v>       0.12799746       0.11160902       0.63398611 </v>
    <v>       0.37200254       0.38839098       0.86601389 </v>
    <v>       0.12799746       0.61160902       0.13398611 </v>
    <v>       0.37200254       0.88839098       0.36601389 </v>
    <v>       0.62799746       0.11160902       0.13398611 </v>
    <v>       0.87200254       0.38839098       0.36601389 </v>
    <v>       0.62799746       0.61160902       0.63398611 </v>
    <v>       0.87200254       0.88839098       0.86601389 </v>
   </varray>
  </structure>
  <varray name="forces" >
   <v>      -0.10868994      -0.13677043      -0.08288232 </v>
   <v>       0.10868994       0.13677043       0.08288232 </v>
   <v>      -0.10868994      -0.13677043      -0.08288232 </v>
   <v>       0.10868994       0.13677043       0.08288232 </v>
   <v>      -0.10868994      -0.13677043      -0.08288232 </v>
   <v>       0.10868994       0.13677043       0.08288232 </v>
   <v>      -0.10868994      -0.13677043      -0.08288232 </v>
   <v>       0.10868994       0.13677043       0.08288232 </v>
  </varray>
  <varray name="stress" >
   <v>     -82.56927326      27.42663716   -1009.95205210 </v>
   <v>      27.42663715     196.70855742     -10.52647080 </v>
   <v>   -1009.95205197     -10.52647103    -129.79455631 </v>
  </varray>
  <energy>
   <i name="e_fr_energy">    -65.74798959 </i>
   <i name="e_wo_entrp">    -65.74170468 </i>
   <i name="e_0_energy">    -65.74484714 </i>
  </energy>
  <time name="totalsc">    4.45    4.45</time>
 </calculation>
 <calculation>
  <scstep>
   <time name="dav">    0.77    0.77</time>
   <time name="total">    0.91    0.91</time>
   <energy>
    <i name="alphaZ">    110.98990814 </i>
    <i name="ewald">  -1374.46576779 </i>
    <i name="hartreedc">   -102.41496308 </i>
    <i name="XCdc">    111.15975213 </i>
    <i name="pawpsdc">   2743.27109831 </i>
    <i name="pawaedc">  -2748.53069477 </i>
    <i name="eentropy">     -0.00698545 </i>
    <i name="bandstr">     17.04019473 </i>
    <i name="atom">   1177.20230207 </i>
    <i name="e_fr_energy">    -65.75515572 </i>
    <i name="e_wo_entrp">    -65.74817028 </i>
    <i name="e_0_energy">    -65.75166300 </i>
   </energy>
  </scstep>
  <scstep>
   <time name="dav">    0.90    0.90</time>
   <time name="total">    1.02    1.02</time>
   <energy>
    <i name="e_fr_energy">    -65.75614983 </i>
    <i name="e_wo_entrp">    -65.74917976 </i>
    <i name="e_0_energy">    -65.75266479 </i>
   </energy>
  </scstep>
  <scstep>
   <time name="dav">    0.62    0.62</time>
   <time name="total">    0.71    0.71</time>
   <energy>
    <i name="e_fr_energy">    -65.75565084 </i>
    <i name="e_wo_entrp">    -65.74870941 </i>
    <i name="e_0_energy">    -65.75218012 </i>
   </energy>
  </scstep>
  <scstep>
   <time name="dav">    0.62    0.62</time>
   <time name="total">    0.71    0.71</time>
   <energy>
    <i name="e_fr_energy">    -65.75566570 </i>
    <i name="e_wo_entrp">    -65.74872275 </i>
    <i name="e_0_energy">    -65.75219423 </i>
   </energy>
  </scstep>
  <scstep>
   <time name="dav">    0.71    0.71</time>
   <time name="total">    0.74    0.74</time>
   <energy>
    <i name="alphaZ">    110.98990814 </i>
    <i name="ewald">  -1374.46576779 </i>
    <i name="hartreedc">   -102.38625470 </i>
    <i name="XCdc">    111.15695567 </i>
    <i name="pawpsdc">   2755.47802882 </i>
    <i name="pawaedc">  -2760.73949189 </i>
    <i name="eentropy">     -0.00694353 </i>
    <i name="bandstr">     17.01559667 </i>
    <i name="atom">   1177.20230207 </i>
    <i name="e_fr_energy">    -65.75566655 </i>
    <i name="e_wo_entrp">    -65.74872301 </i>
    <i name="e_0_energy">    -65.75219478 </i>
   </energy>
  </scstep>
  <structure>
   <crystal>
    <varray name="basis" >
     <v>       2.01775732       1.28774932      -1.92993038 </v>
     <v>       2.91286982      -0.49723940       3.00617203 </v>
     <v>       0.35035770      -3.28227976      -1.67991290 </v>
    </varray>
    <i name="volume">     47.36817889 </i>
    <varray name="rec_basis" >
     <v>       0.22594106       0.12554004      -0.19816346 </v>
     <v>       0.17940057      -0.05728509       0.14934112 </v>
     <v>       0.06146655      -0.24673445      -0.10037022 </v>
    </varray>
   </crystal>
   <varray name="positions" >
    <v>       0.12907017       0.10981168       0.63420135 </v>
    <v>       0.37092983       0.39018832       0.86579865 </v>
    <v>       0.12907017       0.60981168       0.13420135 </v>
    <v>       0.37092983       0.89018832       0.36579865 </v>
    <v>       0.62907017       0.10981168       0.13420135 </v>
    <v>       0.87092983       0.39018832       0.36579865 </v>
    <v>       0.62907017       0.60981168       0.63420135 </v>
    <v>       0.87092983       0.89018832       0.86579865 </v>
   </varray>
  </structure>
  <varray name="forces" >
   <v>      -0.06808220      -0.46825096      -0.20951829 </v>
   <v>       0.06808220       0.46825096       0.20951829 </v>
   <v>      -0.06808220      -0.46825096      -0.20951829 </v>
   <v>       0.06808220       0.46825096       0.20951829 </v>
   <v>      -0.06808220      -0.46825096      -0.20951829 </v>
   <v>       0.06808220       0.46825096       0.20951829 </v>
   <v>      -0.06808220      -0.46825096      -0.20951829 </v>
   <v>       0.06808220       0.46825096       0.20951829 </v>
  </varray>
  <varray name="stress" >
   <v>    -112.91766565      41.27881797    -949.54764872 </v>
   <v>      41.27881794     176.89089260     -18.50935556 </v>
   <v>    -949.54764887     -18.50935559     -44.92051062 </v>
  </varray>
  <energy>
   <i name="e_fr_energy">    -65.75566655 </i>
   <i name="e_wo_entrp">    -65.74872301 </i>
   <i name="e_0_energy">    -65.75219478 </i>
  </energy>
  <time name="totalsc">    4.85    4.85</time>
 </calculation>
 <calculation>
  <scstep>
   <time name="dav">    0.81    0.81</time>
   <time name="total">    0.93    0.93</time>
   <energy>
    <i name="alphaZ">    110.98990814 </i>
    <i name="ewald">  -1371.97734780 </i>
    <i name="hartreedc">   -103.41315453 </i>
    <i name="XCdc">    111.22081584 </i>
    <i name="pawpsdc">   2755.47544540 </i>
    <i name="pawaedc">  -2760.73689020 </i>
    <i name="eentropy">     -0.00553030 </i>
    <i name="bandstr">     15.46860349 </i>
    <i name="atom">   1177.20230207 </i>
    <i name="e_fr_energy">    -65.77584790 </i>
    <i name="e_wo_entrp">    -65.77031760 </i>
    <i name="e_0_energy">    -65.77308275 </i>
   </energy>
  </scstep>
  <scstep>
   <time name="dav">    0.67    0.67</time>
   <time name="total">    0.76    0.76</time>
   <energy>
    <i name="e_fr_energy">    -65.77978659 </i>
    <i name="e_wo_entrp">    -65.77430810 </i>
    <i name="e_0_energy">    -65.77704734 </i>
   </energy>
  </scstep>
  <scstep>
   <time name="dav">    0.59    0.59</time>
   <time name="total">    0.68    0.68</time>
   <energy>
    <i name="e_fr_energy">    -65.77763889 </i>
    <i name="e_wo_entrp">    -65.77222146 </i>
    <i name="e_0_energy">    -65.77493017 </i>
   </energy>
  </scstep>
  <scstep>
   <time name="dav">    0.80    0.80</time>
   <time name="total">    0.90    0.90</time>
   <energy>
    <i name="e_fr_energy">    -65.77769592 </i>
    <i name="e_wo_entrp">    -65.77227428 </i>
    <i name="e_0_energy">    -65.77498510 </i>
   </energy>
  </scstep>
  <scstep>
   <time name="dav">    0.91    0.91</time>
   <time name="total">    1.03    1.03</time>
   <energy>
    <i name="e_fr_energy">    -65.77769575 </i>
    <i name="e_wo_entrp">    -65.77227245 </i>
    <i name="e_0_energy">    -65.77498410 </i>
   </energy>
  </scstep>
  <scstep>
   <time name="dav">    0.75    0.75</time>
   <time name="total">    0.80    0.80</time>
   <energy>
    <i name="alphaZ">    110.98990814 </i>
    <i name="ewald">  -1371.97734780 </i>
    <i name="hartreedc">   -103.52398884 </i>
    <i name="XCdc">    111.22927624 </i>
    <i name="pawpsdc">   2786.28537431 </i>
    <i name="pawaedc">  -2791.55597834 </i>
    <i name="eentropy">     -0.00542366 </i>
    <i name="bandstr">     15.57818218 </i>
    <i name="atom">   1177.20230207 </i>
    <i name="e_fr_energy">    -65.77769569 </i>
    <i name="e_wo_entrp">    -65.77227204 </i>
    <i name="e_0_energy">    -65.77498387 </i>
   </energy>
  </scstep>
  <structure>
   <crystal>
    <varray name="basis" >
     <v>       2.01775732       1.28774932      -1.92993038 </v>
     <v>       2.91286982      -0.49723940       3.00617203 </v>
     <v>       0.35035770      -3.28227976      -1.67991290 </v>
    </varray>
    <i name="volume">     47.36817889 </i>
    <varray name="rec_basis" >
     <v>       0.22594106       0.12554004      -0.19816346 </v>
     <v>       0.17940057      -0.05728509       0.14934112 </v>
     <v>       0.06146655      -0.24673445      -0.10037022 </v>
    </varray>
   </crystal>
   <varray name="positions" >
    <v>       0.13121559       0.10621698       0.63463183 </v>
    <v>       0.36878441       0.39378302       0.86536817 </v>
    <v>       0.13121559       0.60621698       0.13463183 </v>
    <v>       0.36878441       0.89378302       0.36536817 </v>
    <v>       0.63121559       0.10621698       0.13463183 </v>
    <v>       0.86878441       0.39378302       0.36536817 </v>
    <v>       0.63121559       0.60621698       0.63463183 </v>
    <v>       0.86878441       0.89378302       0.86536817 </v>
   </varray>
  </structure>
  <varray name="forces" >
   <v>       0.03007719      -1.06293315      -0.39380317 </v>
   <v>      -0.03007719       1.06293315       0.39380317 </v>
   <v>       0.03007719      -1.06293315      -0.39380317 </v>
   <v>      -0.03007719       1.06293315       0.39380317 </v>
   <v>       0.03007719      -1.06293315      -0.39380317 </v>
   <v>      -0.03007719       1.06293315       0.39380317 </v>
   <v>       0.03007719      -1.06293315      -0.39380317 </v>
   <v>      -0.03007719       1.06293315       0.39380317 </v>
  </varray>
  <varray name="stress" >
   <v>    -160.88734795      56.77723208    -837.37274584 </v>
   <v>      56.77723194     136.81714826     -39.55906427 </v>
   <v>    -837.37274570     -39.55906439     115.26878060 </v>
  </varray>
  <energy>
   <i name="e_fr_energy">    -65.77769569 </i>
   <i name="e_wo_entrp">    -65.77227204 </i>
   <i name="e_0_energy">    -65.77498387 </i>
  </energy>
  <time name="totalsc">    5.67    5.67</time>
 </calculation>
 <calculation>
  <scstep>
   <time name="dav">    0.56    0.56</time>
   <time name="total">    0.65    0.65</time>
   <energy>
    <i name="alphaZ">    110.98990814 </i>
    <i name="ewald">  -1366.04445688 </i>
    <i name="hartreedc">   -105.84347109 </i>
    <i name="XCdc">    111.37422120 </i>
    <i name="pawpsdc">   2786.19416447 </i>
    <i name="pawaedc">  -2791.46477409 </i>
    <i name="eentropy">     -0.00157129 </i>
    <i name="bandstr">     11.86670219 </i>
    <i name="atom">   1177.20230207 </i>
    <i name="e_fr_energy">    -65.72697529 </i>
    <i name="e_wo_entrp">    -65.72540400 </i>
    <i name="e_0_energy">    -65.72618965 </i>
   </energy>
  </scstep>
  <scstep>
   <time name="dav">    0.66    0.66</time>
   <time name="total">    0.75    0.75</time>
   <energy>
    <i name="e_fr_energy">    -65.74640684 </i>
    <i name="e_wo_entrp">    -65.74474221 </i>
    <i name="e_0_energy">    -65.74557452 </i>
   </energy>
  </scstep>
  <scstep>
   <time name="dav">    0.83    0.83</time>
   <time name="total">    0.97    0.97</time>
   <energy>
    <i name="e_fr_energy">    -65.73833518 </i>
    <i name="e_wo_entrp">    -65.73648457 </i>
    <i name="e_0_energy">    -65.73740988 </i>
   </energy>
  </scstep>
  <scstep>
   <time name="dav">    0.88    0.88</time>
   <time name="total">    1.00    1.00</time>
   <energy>
    <i name="e_fr_energy">    -65.73862367 </i>
    <i name="e_wo_entrp">    -65.73678372 </i>
    <i name="e_0_energy">    -65.73770370 </i>
   </energy>
  </scstep>
  <scstep>
   <time name="dav">    0.65    0.65</time>
   <time name="total">    0.73    0.73</time>
   <energy>
    <i name="e_fr_energy">    -65.73862319 </i>
    <i name="e_wo_entrp">    -65.73679338 </i>
    <i name="e_0_energy">    -65.73770829 </i>
   </energy>
  </scstep>
  <scstep>
   <time name="dav">    0.59    0.59</time>
[...]
       <r>    0.0320    1.0000 </r>
       <r>    0.6954    1.0000 </r>
       <r>    2.8339    1.0000 </r>
       <r>    3.0495    1.0000 </r>
       <r>    4.0368    1.0000 </r>
       <r>    4.6128    1.0000 </r>
       <r>    5.3870    1.0000 </r>
       <r>    5.7665    1.0000 </r>
       <r>    6.2858    1.0000 </r>
       <r>    7.7883    1.0000 </r>
       <r>   11.2998    0.0000 </r>
       <r>   11.7891    0.0000 </r>
       <r>   13.9842    0.0000 </r>
       <r>   15.5643    0.0000 </r>
       <r>   15.9732    0.0000 </r>
       <r>   16.1420    0.0000 </r>
      </set>
      <set comment="kpoint 30">
       <r>   -9.2747    1.0000 </r>
       <r>   -7.0087    1.0000 </r>
       <r>   -6.4210    1.0000 </r>
       <r>   -5.4433    1.0000 </r>
       <r>   -3.5643    1.0000 </r>
       <r>   -2.7065    1.0000 </r>
       <r>   -2.2750    1.0000 </r>
       <r>    1.0577    1.0000 </r>
       <r>    1.2625    1.0000 </r>
       <r>    1.3643    1.0000 </r>
       <r>    1.5299    1.0000 </r>
       <r>    3.9302    1.0000 </r>
       <r>    4.4561    1.0000 </r>
       <r>    5.8399    1.0000 </r>
       <r>    8.0405    1.0000 </r>
       <r>   10.4697    0.0000 </r>
       <r>   12.1349    0.0000 </r>
       <r>   14.3603    0.0000 </r>
       <r>   15.1241    0.0000 </r>
       <r>   15.8094    0.0000 </r>
       <r>   16.6576    0.0000 </r>
       <r>   17.3738    0.0000 </r>
      </set>
      <set comment="kpoint 31">
       <r>   -9.2180    1.0000 </r>
       <r>   -7.1072    1.0000 </r>
       <r>   -6.9576    1.0000 </r>
       <r>   -4.7801    1.0000 </r>
       <r>   -4.0977    1.0000 </r>
       <r>   -1.1880    1.0000 </r>
       <r>   -0.8933    1.0000 </r>
       <r>   -0.5827    1.0000 </r>
       <r>   -0.4110    1.0000 </r>
       <r>    2.3060    1.0000 </r>
       <r>    2.5279    1.0000 </r>
       <r>    2.9585    1.0000 </r>
       <r>    3.3977    1.0000 </r>
       <r>    4.5999    1.0000 </r>
       <r>    9.7005    1.0000 </r>
       <r>   10.8772    0.0000 </r>
       <r>   13.4258    0.0000 </r>
       <r>   14.0085    0.0000 </r>
       <r>   14.7652    0.0000 </r>
       <r>   15.7686    0.0000 </r>
       <r>   17.0895    0.0000 </r>
       <r>   18.2663    0.0000 </r>
      </set>
      <set comment="kpoint 32">
       <r>  -10.6753    1.0000 </r>
       <r>   -8.2627    1.0000 </r>
       <r>   -5.9286    1.0000 </r>
       <r>   -5.5890    1.0000 </r>
       <r>   -3.2481    1.0000 </r>
       <r>   -0.2692    1.0000 </r>
       <r>    0.4872    1.0000 </r>
       <r>    1.3240    1.0000 </r>
       <r>    1.5176    1.0000 </r>
       <r>    2.1053    1.0000 </r>
       <r>    2.4350    1.0000 </r>
       <r>    2.5057    1.0000 </r>
       <r>    4.7125    1.0000 </r>
       <r>    6.0882    1.0000 </r>
       <r>    8.6936    1.0000 </r>
       <r>    9.0560    1.0000 </r>
       <r>   11.7612    0.0000 </r>
       <r>   12.2761    0.0000 </r>
       <r>   13.0680    0.0000 </r>
       <r>   15.6899    0.0000 </r>
       <r>   15.7054    0.0000 </r>
       <r>   17.0146    0.0000 </r>
      </set>
     </set>
    </set>
   </array>
  </eigenvalues>
  <separator name="orbital magnetization" >
   <v name="MAGDIPOLOUT">      0.00000000      0.00000000      0.00000000</v>
  </separator>
  <dos>
   <i name="efermi">     10.12320430 </i>
   <total>
    <array>
     <dimension dim="1">gridpoints</dimension>
     <dimension dim="2">spin</dimension>
     <field>energy</field>
     <field>total</field>
     <field>integrated</field>
     <set>
      <set comment="spin 1">
       <r>   -13.2071     0.0000     0.0000 </r>
       <r>   -13.0937     0.0000     0.0000 </r>
       <r>   -12.9803     0.0000     0.0000 </r>
       <r>   -12.8669     0.0000     0.0000 </r>
       <r>   -12.7535     0.0000     0.0000 </r>
       <r>   -12.6401     0.0000     0.0000 </r>
       <r>   -12.5267     0.0000     0.0000 </r>
       <r>   -12.4133     0.0000     0.0000 </r>
       <r>   -12.2999     0.0000     0.0000 </r>
       <r>   -12.1864     0.0000     0.0000 </r>
       <r>   -12.0730     0.0000     0.0000 </r>
       <r>   -11.9596     0.0000     0.0000 </r>
       <r>   -11.8462     0.0039     0.0004 </r>
       <r>   -11.7328     0.1653     0.0192 </r>
       <r>   -11.6194     0.9108     0.1225 </r>
       <r>   -11.5060     0.9209     0.2269 </r>
       <r>   -11.3926     0.1966     0.2492 </r>
       <r>   -11.2792     0.0069     0.2500 </r>
       <r>   -11.1658     0.0007     0.2501 </r>
       <r>   -11.0524     0.0447     0.2551 </r>
       <r>   -10.9390     0.3699     0.2971 </r>
       <r>   -10.8256     0.6093     0.3662 </r>
       <r>   -10.7122     0.8014     0.4571 </r>
       <r>   -10.5988     1.1434     0.5867 </r>
       <r>   -10.4854     0.6438     0.6598 </r>
       <r>   -10.3720     0.5862     0.7262 </r>
       <r>   -10.2586     0.4227     0.7742 </r>
       <r>   -10.1452     1.1520     0.9048 </r>
       <r>   -10.0318     1.3788     1.0612 </r>
       <r>    -9.9184     0.5183     1.1200 </r>
       <r>    -9.8050     0.0456     1.1251 </r>
       <r>    -9.6915     0.0669     1.1327 </r>
       <r>    -9.5781     0.3757     1.1753 </r>
       <r>    -9.4647     0.8119     1.2674 </r>
       <r>    -9.3513     1.4419     1.4309 </r>
       <r>    -9.2379     1.6024     1.6126 </r>
       <r>    -9.1245     1.0489     1.7316 </r>
       <r>    -9.0111     1.1556     1.8626 </r>
       <r>    -8.8977     1.2591     2.0054 </r>
       <r>    -8.7843     1.0204     2.1211 </r>
       <r>    -8.6709     0.9786     2.2321 </r>
       <r>    -8.5575     0.9390     2.3386 </r>
       <r>    -8.4441     0.4249     2.3868 </r>
       <r>    -8.3307     0.9180     2.4909 </r>
       <r>    -8.2173     1.4277     2.6528 </r>
       <r>    -8.1039     0.7532     2.7382 </r>
       <r>    -7.9905     0.3617     2.7792 </r>
       <r>    -7.8771     0.6512     2.8531 </r>
       <r>    -7.7637     1.0257     2.9694 </r>
       <r>    -7.6503     1.1969     3.1051 </r>
       <r>    -7.5369     1.2915     3.2516 </r>
       <r>    -7.4235     1.4352     3.4143 </r>
       <r>    -7.3101     2.0865     3.6510 </r>
       <r>    -7.1967     2.3193     3.9140 </r>
       <r>    -7.0832     2.0462     4.1460 </r>
       <r>    -6.9698     1.7532     4.3449 </r>
       <r>    -6.8564     1.4126     4.5050 </r>
       <r>    -6.7430     1.1884     4.6398 </r>
       <r>    -6.6296     1.2743     4.7843 </r>
       <r>    -6.5162     1.4217     4.9455 </r>
       <r>    -6.4028     1.5872     5.1255 </r>
       <r>    -6.2894     1.0471     5.2443 </r>
       <r>    -6.1760     0.5570     5.3074 </r>
       <r>    -6.0626     0.9353     5.4135 </r>
       <r>    -5.9492     1.4786     5.5812 </r>
       <r>    -5.8358     1.3875     5.7385 </r>
       <r>    -5.7224     1.4065     5.8980 </r>
       <r>    -5.6090     2.0032     6.1252 </r>
       <r>    -5.4956     2.0597     6.3588 </r>
       <r>    -5.3822     1.9579     6.5808 </r>
       <r>    -5.2688     2.2509     6.8361 </r>
       <r>    -5.1554     0.9354     6.9422 </r>
       <r>    -5.0420     0.5314     7.0024 </r>
       <r>    -4.9286     0.4938     7.0584 </r>
       <r>    -4.8152     0.5623     7.1222 </r>
       <r>    -4.7018     1.2158     7.2600 </r>
       <r>    -4.5883     1.0181     7.3755 </r>
       <r>    -4.4749     0.8828     7.4756 </r>
       <r>    -4.3615     0.9084     7.5786 </r>
       <r>    -4.2481     0.7848     7.6676 </r>
       <r>    -4.1347     0.8189     7.7605 </r>
       <r>    -4.0213     1.1692     7.8931 </r>
       <r>    -3.9079     1.8584     8.1038 </r>
       <r>    -3.7945     2.0978     8.3417 </r>
       <r>    -3.6811     0.8739     8.4408 </r>
       <r>    -3.5677     1.0529     8.5603 </r>
       <r>    -3.4543     1.2762     8.7050 </r>
       <r>    -3.3409     0.7726     8.7926 </r>
       <r>    -3.2275     1.7195     8.9876 </r>
       <r>    -3.1141     1.9116     9.2044 </r>
       <r>    -3.0007     1.3556     9.3581 </r>
       <r>    -2.8873     1.5587     9.5349 </r>
       <r>    -2.7739     1.3192     9.6845 </r>
       <r>    -2.6605     1.3869     9.8418 </r>
       <r>    -2.5471     1.3644     9.9965 </r>
       <r>    -2.4337     1.5865    10.1764 </r>
       <r>    -2.3203     1.2141    10.3141 </r>
       <r>    -2.2069     1.2410    10.4548 </r>
       <r>    -2.0934     1.4073    10.6144 </r>
       <r>    -1.9800     1.3756    10.7704 </r>
       <r>    -1.8666     1.1813    10.9044 </r>
       <r>    -1.7532     1.0800    11.0269 </r>
       <r>    -1.6398     1.7144    11.2213 </r>
       <r>    -1.5264     1.3726    11.3770 </r>
       <r>    -1.4130     1.8055    11.5817 </r>
       <r>    -1.2996     1.7167    11.7764 </r>
       <r>    -1.1862     0.6853    11.8541 </r>
       <r>    -1.0728     1.3049    12.0021 </r>
       <r>    -0.9594     2.0453    12.2340 </r>
       <r>    -0.8460     1.8844    12.4477 </r>
       <r>    -0.7326     1.1798    12.5815 </r>
       <r>    -0.6192     1.5497    12.7573 </r>
       <r>    -0.5058     1.9478    12.9781 </r>
       <r>    -0.3924     2.4107    13.2515 </r>
       <r>    -0.2790     2.9776    13.5892 </r>
       <r>    -0.1656     2.3356    13.8541 </r>
       <r>    -0.0522     1.7368    14.0510 </r>
       <r>     0.0612     2.0568    14.2843 </r>
       <r>     0.1746     1.5056    14.4550 </r>
       <r>     0.2880     0.9844    14.5667 </r>
       <r>     0.4014     0.6372    14.6389 </r>
       <r>     0.5149     1.3583    14.7930 </r>
       <r>     0.6283     2.2070    15.0433 </r>
       <r>     0.7417     1.9084    15.2597 </r>
       <r>     0.8551     1.9364    15.4793 </r>
       <r>     0.9685     1.8164    15.6853 </r>
       <r>     1.0819     2.2594    15.9415 </r>
       <r>     1.1953     2.2926    16.2015 </r>
       <r>     1.3087     3.0564    16.5481 </r>
       <r>     1.4221     2.9399    16.8815 </r>
       <r>     1.5355     2.3631    17.1495 </r>
       <r>     1.6489     2.1309    17.3911 </r>
       <r>     1.7623     1.9093    17.6076 </r>
       <r>     1.8757     2.3810    17.8776 </r>
       <r>     1.9891     2.8016    18.1954 </r>
       <r>     2.1025     2.1423    18.4383 </r>
       <r>     2.2159     2.4443    18.7155 </r>
       <r>     2.3293     3.2828    19.0878 </r>
       <r>     2.4427     3.3861    19.4718 </r>
       <r>     2.5561     3.3639    19.8533 </r>
       <r>     2.6695     3.9491    20.3011 </r>
       <r>     2.7829     3.6446    20.7144 </r>
       <r>     2.8963     2.4576    20.9931 </r>
       <r>     3.0098     2.1989    21.2425 </r>
       <r>     3.1232     2.7439    21.5537 </r>
       <r>     3.2366     2.1309    21.7953 </r>
       <r>     3.3500     2.6753    22.0987 </r>
       <r>     3.4634     3.2037    22.4620 </r>
       <r>     3.5768     2.9096    22.7920 </r>
       <r>     3.6902     2.3185    23.0549 </r>
       <r>     3.8036     2.3923    23.3262 </r>
       <r>     3.9170     2.3701    23.5950 </r>
       <r>     4.0304     2.6974    23.9009 </r>
       <r>     4.1438     2.6989    24.2070 </r>
       <r>     4.2572     2.6746    24.5103 </r>
       <r>     4.3706     2.2050    24.7603 </r>
       <r>     4.4840     1.4316    24.9227 </r>
       <r>     4.5974     1.8435    25.1317 </r>
       <r>     4.7108     2.3938    25.4032 </r>
       <r>     4.8242     1.4481    25.5674 </r>
       <r>     4.9376     1.6664    25.7564 </r>
       <r>     5.0510     1.8984    25.9717 </r>
       <r>     5.1644     1.1271    26.0995 </r>
       <r>     5.2778     1.2944    26.2463 </r>
       <r>     5.3912     1.8146    26.4521 </r>
       <r>     5.5047     1.8627    26.6633 </r>
       <r>     5.6181     2.4622    26.9426 </r>
       <r>     5.7315     2.2474    27.1974 </r>
       <r>     5.8449     1.9668    27.4205 </r>
       <r>     5.9583     1.8163    27.6264 </r>
       <r>     6.0717     1.1534    27.7572 </r>
       <r>     6.1851     1.4724    27.9242 </r>
       <r>     6.2985     1.5835    28.1038 </r>
       <r>     6.4119     1.1551    28.2348 </r>
       <r>     6.5253     1.3585    28.3889 </r>
       <r>     6.6387     1.2008    28.5250 </r>
       <r>     6.7521     0.7050    28.6050 </r>
       <r>     6.8655     0.7533    28.6904 </r>
       <r>     6.9789     1.0172    28.8058 </r>
       <r>     7.0923     1.4363    28.9687 </r>
       <r>     7.2057     1.3113    29.1174 </r>
       <r>     7.3191     0.5493    29.1797 </r>
       <r>     7.4325     0.0764    29.1883 </r>
       <r>     7.5459     0.1556    29.2060 </r>
       <r>     7.6593     0.4228    29.2539 </r>
       <r>     7.7727     0.6886    29.3320 </r>
       <r>     7.8861     1.1059    29.4574 </r>
       <r>     7.9995     1.3659    29.6123 </r>
       <r>     8.1130     1.2557    29.7547 </r>
       <r>     8.2264     0.9025    29.8571 </r>
       <r>     8.3398     0.7847    29.9461 </r>
       <r>     8.4532     0.9926    30.0586 </r>
       <r>     8.5666     1.0458    30.1772 </r>
       <r>     8.6800     1.4461    30.3412 </r>
       <r>     8.7934     1.9740    30.5651 </r>
       <r>     8.9068     1.2308    30.7047 </r>
       <r>     9.0202     1.4709    30.8715 </r>
       <r>     9.1336     1.5442    31.0466 </r>
       <r>     9.2470     1.3273    31.1971 </r>
       <r>     9.3604     1.7384    31.3943 </r>
       <r>     9.4738     1.1865    31.5288 </r>
       <r>     9.5872     0.3200    31.5651 </r>
       <r>     9.7006     0.3766    31.6078 </r>
       <r>     9.8140     0.6806    31.6850 </r>
       <r>     9.9274     1.0883    31.8084 </r>
       <r>    10.0408     1.2665    31.9520 </r>
       <r>    10.1542     0.5458    32.0139 </r>
       <r>    10.2676     0.7621    32.1004 </r>
       <r>    10.3810     1.3469    32.2531 </r>
       <r>    10.4944     1.3456    32.4057 </r>
       <r>    10.6079     1.2461    32.5470 </r>
       <r>    10.7213     1.7611    32.7467 </r>
       <r>    10.8347     1.5584    32.9235 </r>
       <r>    10.9481     1.0095    33.0379 </r>
       <r>    11.0615     0.3972    33.0830 </r>
       <r>    11.1749     0.5374    33.1439 </r>
       <r>    11.2883     0.9539    33.2521 </r>
       <r>    11.4017     1.4083    33.4118 </r>
       <r>    11.5151     0.8935    33.5131 </r>
       <r>    11.6285     0.7613    33.5994 </r>
       <r>    11.7419     1.0284    33.7161 </r>
       <r>    11.8553     1.2202    33.8544 </r>
       <r>    11.9687     0.6833    33.9319 </r>
       <r>    12.0821     1.1173    34.0586 </r>
       <r>    12.1955     2.0470    34.2908 </r>
       <r>    12.3089     1.9519    34.5121 </r>
       <r>    12.4223     1.2252    34.6511 </r>
       <r>    12.5357     0.3182    34.6872 </r>
       <r>    12.6491     0.2600    34.7166 </r>
       <r>    12.7625     0.6096    34.7858 </r>
       <r>    12.8759     0.2274    34.8116 </r>
       <r>    12.9893     0.1428    34.8278 </r>
       <r>    13.1028     0.8211    34.9209 </r>
       <r>    13.2162     1.2335    35.0608 </r>
       <r>    13.3296     1.3261    35.2111 </r>
       <r>    13.4430     1.6003    35.3926 </r>
       <r>    13.5564     2.0299    35.6228 </r>
       <r>    13.6698     2.1303    35.8644 </r>
       <r>    13.7832     1.7336    36.0610 </r>
       <r>    13.8966     1.5196    36.2333 </r>
       <r>    14.0100     1.9893    36.4589 </r>
       <r>    14.1234     1.9260    36.6774 </r>
       <r>    14.2368     1.2901    36.8237 </r>
       <r>    14.3502     1.3406    36.9757 </r>
       <r>    14.4636     1.6999    37.1685 </r>
       <r>    14.5770     1.8144    37.3742 </r>
       <r>    14.6904     1.7812    37.5762 </r>
       <r>    14.8038     1.4550    37.7412 </r>
       <r>    14.9172     1.6942    37.9333 </r>
       <r>    15.0306     1.7210    38.1285 </r>
       <r>    15.1440     1.1046    38.2538 </r>
       <r>    15.2574     1.7121    38.4479 </r>
       <r>    15.3708     1.6405    38.6340 </r>
       <r>    15.4842     1.1592    38.7654 </r>
       <r>    15.5976     1.9057    38.9815 </r>
       <r>    15.7111     2.9876    39.3204 </r>
       <r>    15.8245     2.8474    39.6433 </r>
       <r>    15.9379     2.7231    39.9521 </r>
       <r>    16.0513     2.8524    40.2756 </r>
       <r>    16.1647     2.1337    40.5175 </r>
       <r>    16.2781     1.6797    40.7080 </r>
       <r>    16.3915     1.6929    40.9000 </r>
       <r>    16.5049     2.2631    41.1566 </r>
       <r>    16.6183     3.1146    41.5099 </r>
       <r>    16.7317     2.7426    41.8209 </r>
       <r>    16.8451     1.5702    41.9989 </r>
       <r>    16.9585     1.5721    42.1772 </r>
       <r>    17.0719     1.3626    42.3318 </r>
       <r>    17.1853     1.9762    42.5559 </r>
       <r>    17.2987     1.6831    42.7467 </r>
       <r>    17.4121     1.6068    42.9290 </r>
       <r>    17.5255     1.2100    43.0662 </r>
       <r>    17.6389     1.5589    43.2430 </r>
       <r>    17.7523     1.7491    43.4413 </r>
       <r>    17.8657     1.0451    43.5598 </r>
       <r>    17.9791     0.7083    43.6402 </r>
       <r>    18.0925     0.5057    43.6975 </r>
       <r>    18.2060     0.4700    43.7508 </r>
       <r>    18.3194     0.4173    43.7981 </r>
       <r>    18.4328     0.1874    43.8194 </r>
       <r>    18.5462     0.3058    43.8541 </r>
       <r>    18.6596     0.1729    43.8737 </r>
       <r>    18.7730     0.0151    43.8754 </r>
       <r>    18.8864     0.1001    43.8867 </r>
       <r>    18.9998     0.3174    43.9227 </r>
       <r>    19.1132     0.1326    43.9378 </r>
       <r>    19.2266     0.1519    43.9550 </r>
       <r>    19.3400     0.3122    43.9904 </r>
       <r>    19.4534     0.0823    43.9997 </r>
       <r>    19.5668     0.0024    44.0000 </r>
       <r>    19.6802     0.0000    44.0000 </r>
       <r>    19.7936     0.0000    44.0000 </r>
       <r>    19.9070     0.0000    44.0000 </r>
       <r>    20.0204     0.0000    44.0000 </r>
       <r>    20.1338     0.0000    44.0000 </r>
       <r>    20.2472     0.0000    44.0000 </r>
       <r>    20.3606     0.0000    44.0000 </r>
       <r>    20.4740     0.0000    44.0000 </r>
       <r>    20.5874     0.0000    44.0000 </r>
       <r>    20.7009     0.0000    44.0000 </r>
       <r>    20.8143     0.0000    44.0000 </r>
      </set>
     </set>
    </array>
   </total>
  </dos>
 </calculation>
 <structure name="finalpos" >
  <crystal>
   <varray name="basis" >
    <v>       2.01775732       1.28774932      -1.92993038 </v>
    <v>       2.91286982      -0.49723940       3.00617203 </v>
    <v>       0.35035770      -3.28227976      -1.67991290 </v>
   </varray>
   <i name="volume">     47.36817889 </i>
   <varray name="rec_basis" >
    <v>       0.22594106       0.12554004      -0.19816346 </v>
    <v>       0.17940057      -0.05728509       0.14934112 </v>
    <v>       0.06146655      -0.24673445      -0.10037022 </v>
   </varray>
  </crystal>
  <varray name="positions" >
   <v>       0.16314341       0.08332942       0.66656863 </v>
   <v>       0.33685659       0.41667058       0.83343137 </v>
   <v>       0.16314341       0.58332942       0.16656863 </v>
   <v>       0.33685659       0.91667058       0.33343137 </v>
   <v>       0.66314341       0.08332942       0.16656863 </v>
   <v>       0.83685659       0.41667058       0.33343137 </v>
   <v>       0.66314341       0.58332942       0.66656863 </v>
   <v>       0.83685659       0.91667058       0.83343137 </v>
  </varray>
  <varray name="selective"  type="logical" >
   <v type="logical" >  T  T  T </v>
   <v type="logical" >  T  T  T </v>
   <v type="logical" >  T  T  T </v>
   <v type="logical" >  T  T  T </v>
   <v type="logical" >  T  T  T </v>
   <v type="logical" >  T  T  T </v>
   <v type="logical" >  T  T  T </v>
   <v type="logical" >  T  T  T </v>
  </varray>
  <nose>
   <v>      -3.00000000       0.00000000       0.00010000       0.00010000 </v>
  </nose>
 </structure>
</modeling>
