unknown system                          
           1
     2.017757    1.287749   -1.929930
     2.912870   -0.497239    3.006172
     0.350358   -3.282280   -1.679913
   C 
     8
Direct configuration=     1
   0.12500000  0.12500000  0.62500000
   0.37500000  0.37500000  0.87500000
   0.12500000  0.62500000  0.12500000
   0.37500000  0.87500000  0.37500000
   0.62500000  0.12500000  0.12500000
   0.87500000  0.37500000  0.37500000
   0.62500000  0.62500000  0.62500000
   0.87500000  0.87500000  0.87500000
Direct configuration=     2
   0.11840744  0.11793880  0.62208433
   0.38159256  0.38206120  0.87791567
   0.11840744  0.61793880  0.12208433
   0.38159256  0.88206120  0.37791567
   0.61840744  0.11793880  0.12208433
   0.88159256  0.38206120  0.37791567
   0.61840744  0.61793880  0.62208433
   0.88159256  0.88206120  0.87791567
Direct configuration=     3
   0.12244811  0.12226671  0.62387139
   0.37755189  0.37773329  0.87612861
   0.12244811  0.62226671  0.12387139
   0.37755189  0.87773329  0.37612861
   0.62244811  0.12226671  0.12387139
   0.87755189  0.37773329  0.37612861
   0.62244811  0.62226671  0.62387139
   0.87755189  0.87773329  0.87612861
Direct configuration=     4
   0.12210887  0.11835368  0.62710283
   0.37789113  0.38164632  0.87289717
   0.12210887  0.61835368  0.12710283
   0.37789113  0.88164632  0.37289717
   0.62210887  0.11835368  0.12710283
   0.87789113  0.38164632  0.37289717
   0.62210887  0.61835368  0.62710283
   0.87789113  0.88164632  0.87289717
Direct configuration=     5
   0.12109114  0.10661460  0.63679715
   0.37890886  0.39338540  0.86320285
   0.12109114  0.60661460  0.13679715
   0.37890886  0.89338540  0.36320285
   0.62109114  0.10661460  0.13679715
   0.87890886  0.39338540  0.36320285
   0.62109114  0.60661460  0.63679715
   0.87890886  0.89338540  0.86320285
Direct configuration=     6
   0.12167414  0.11333924  0.63124384
   0.37832586  0.38666076  0.86875616
   0.12167414  0.61333924  0.13124384
   0.37832586  0.88666076  0.36875616
   0.62167414  0.11333924  0.13124384
   0.87832586  0.38666076  0.36875616
   0.62167414  0.61333924  0.63124384
   0.87832586  0.88666076  0.86875616
Direct configuration=     7
   0.12184818  0.11534670  0.62958604
   0.37815182  0.38465330  0.87041396
   0.12184818  0.61534670  0.12958604
   0.37815182  0.88465330  0.37041396
   0.62184818  0.11534670  0.12958604
   0.87815182  0.38465330  0.37041396
   0.62184818  0.61534670  0.62958604
   0.87815182  0.88465330  0.87041396
Direct configuration=     8
   0.12503816  0.11399781  0.63215316
   0.37496184  0.38600219  0.86784684
   0.12503816  0.61399781  0.13215316
   0.37496184  0.88600219  0.36784684
   0.62503816  0.11399781  0.13215316
   0.87496184  0.38600219  0.36784684
   0.62503816  0.61399781  0.63215316
   0.87496184  0.88600219  0.86784684
Direct configuration=     9
   0.12708944  0.11313043  0.63380391
   0.37291056  0.38686957  0.86619609
   0.12708944  0.61313043  0.13380391
   0.37291056  0.88686957  0.36619609
   0.62708944  0.11313043  0.13380391
   0.87291056  0.38686957  0.36619609
   0.62708944  0.61313043  0.63380391
   0.87291056  0.88686957  0.86619609
Direct configuration=    10
   0.12799746  0.11160902  0.63398611
   0.37200254  0.38839098  0.86601389
   0.12799746  0.61160902  0.13398611
   0.37200254  0.88839098  0.36601389
   0.62799746  0.11160902  0.13398611
   0.87200254  0.38839098  0.36601389
   0.62799746  0.61160902  0.63398611
   0.87200254  0.88839098  0.86601389
Direct configuration=    11
   0.12907017  0.10981168  0.63420135
   0.37092983  0.39018832  0.86579865
   0.12907017  0.60981168  0.13420135
   0.37092983  0.89018832  0.36579865
   0.62907017  0.10981168  0.13420135
   0.87092983  0.39018832  0.36579865
   0.62907017  0.60981168  0.63420135
   0.87092983  0.89018832  0.86579865
Direct configuration=    12
   0.13121559  0.10621698  0.63463183
   0.36878441  0.39378302  0.86536817
   0.13121559  0.60621698  0.13463183
   0.36878441  0.89378302  0.36536817
   0.63121559  0.10621698  0.13463183
   0.86878441  0.39378302  0.36536817
   0.63121559  0.60621698  0.63463183
   0.86878441  0.89378302  0.86536817
Direct configuration=    13
   0.13550643  0.09902759  0.63549279
   0.36449357  0.40097241  0.86450721
   0.13550643  0.59902759  0.13549279
   0.36449357  0.90097241  0.36450721
   0.63550643  0.09902759  0.13549279
   0.86449357  0.40097241  0.36450721
   0.63550643  0.59902759  0.63549279
   0.86449357  0.90097241  0.86450721
Direct configuration=    14
   0.13230027  0.10439957  0.63484947
   0.36769973  0.39560043  0.86515053
   0.13230027  0.60439957  0.13484947
   0.36769973  0.89560043  0.36515053
   0.63230027  0.10439957  0.13484947
   0.86769973  0.39560043  0.36515053
   0.63230027  0.60439957  0.63484947
   0.86769973  0.89560043  0.86515053
Direct configuration=    15
   0.13255936  0.10396546  0.63490146
   0.36744064  0.39603454  0.86509854
   0.13255936  0.60396546  0.13490146
   0.36744064  0.89603454  0.36509854
   0.63255936  0.10396546  0.13490146
   0.86744064  0.39603454  0.36509854
   0.63255936  0.60396546  0.63490146
   0.86744064  0.89603454  0.86509854
Direct configuration=    16
   0.13259948  0.10389746  0.63491839
   0.36740052  0.39610254  0.86508161
   0.13259948  0.60389746  0.13491839
   0.36740052  0.89610254  0.36508161
   0.63259948  0.10389746  0.13491839
   0.86740052  0.39610254  0.36508161
   0.63259948  0.60389746  0.63491839
   0.86740052  0.89610254  0.86508161
Direct configuration=    17
   0.13271983  0.10369346  0.63496918
   0.36728017  0.39630654  0.86503082
   0.13271983  0.60369346  0.13496918
   0.36728017  0.89630654  0.36503082
   0.63271983  0.10369346  0.13496918
   0.86728017  0.39630654  0.36503082
   0.63271983  0.60369346  0.63496918
   0.86728017  0.89630654  0.86503082
Direct configuration=    18
   0.13296053  0.10328546  0.63507075
   0.36703947  0.39671454  0.86492925
   0.13296053  0.60328546  0.13507075
   0.36703947  0.89671454  0.36492925
   0.63296053  0.10328546  0.13507075
   0.86703947  0.39671454  0.36492925
   0.63296053  0.60328546  0.63507075
   0.86703947  0.89671454  0.86492925
Direct configuration=    19
   0.13344193  0.10246947  0.63527390
   0.36655807  0.39753053  0.86472610
   0.13344193  0.60246947  0.13527390
   0.36655807  0.89753053  0.36472610
   0.63344193  0.10246947  0.13527390
   0.86655807  0.39753053  0.36472610
   0.63344193  0.60246947  0.63527390
   0.86655807  0.89753053  0.86472610
Direct configuration=    20
   0.13346932  0.10242269  0.63533944
   0.36653068  0.39757731  0.86466056
   0.13346932  0.60242269  0.13533944
   0.36653068  0.89757731  0.36466056
   0.63346932  0.10242269  0.13533944
   0.86653068  0.39757731  0.36466056
   0.63346932  0.60242269  0.63533944
   0.86653068  0.89757731  0.86466056
Direct configuration=    21
   0.13355150  0.10228232  0.63553604
   0.36644850  0.39771768  0.86446396
   0.13355150  0.60228232  0.13553604
   0.36644850  0.89771768  0.36446396
   0.63355150  0.10228232  0.13553604
   0.86644850  0.39771768  0.36446396
   0.63355150  0.60228232  0.63553604
   0.86644850  0.89771768  0.86446396
Direct configuration=    22
   0.13371585  0.10200159  0.63592925
   0.36628415  0.39799841  0.86407075
   0.13371585  0.60200159  0.13592925
   0.36628415  0.89799841  0.36407075
   0.63371585  0.10200159  0.13592925
   0.86628415  0.39799841  0.36407075
   0.63371585  0.60200159  0.63592925
   0.86628415  0.89799841  0.86407075
Direct configuration=    23
   0.13404455  0.10144014  0.63671567
   0.36595545  0.39855986  0.86328433
   0.13404455  0.60144014  0.13671567
   0.36595545  0.89855986  0.36328433
   0.63404455  0.10144014  0.13671567
   0.86595545  0.39855986  0.36328433
   0.63404455  0.60144014  0.63671567
   0.86595545  0.89855986  0.86328433
Direct configuration=    24
   0.13470196  0.10031723  0.63828851
   0.36529804  0.39968277  0.86171149
   0.13470196  0.60031723  0.13828851
   0.36529804  0.89968277  0.36171149
   0.63470196  0.10031723  0.13828851
   0.86529804  0.39968277  0.36171149
   0.63470196  0.60031723  0.63828851
   0.86529804  0.89968277  0.86171149
Direct configuration=    25
   0.13601677  0.09807141  0.64143419
   0.36398323  0.40192859  0.85856581
   0.13601677  0.59807141  0.14143419
   0.36398323  0.90192859  0.35856581
   0.63601677  0.09807141  0.14143419
   0.86398323  0.40192859  0.35856581
   0.63601677  0.59807141  0.64143419
   0.86398323  0.90192859  0.85856581
Direct configuration=    26
   0.13864639  0.09357976  0.64772554
   0.36135361  0.40642024  0.85227446
   0.13864639  0.59357976  0.14772554
   0.36135361  0.90642024  0.35227446
   0.63864639  0.09357976  0.14772554
   0.86135361  0.40642024  0.35227446
   0.63864639  0.59357976  0.64772554
   0.86135361  0.90642024  0.85227446
Direct configuration=    27
   0.14390562  0.08459647  0.66030825
   0.35609438  0.41540353  0.83969175
   0.14390562  0.58459647  0.16030825
   0.35609438  0.91540353  0.33969175
   0.64390562  0.08459647  0.16030825
   0.85609438  0.41540353  0.33969175
   0.64390562  0.58459647  0.66030825
   0.85609438  0.91540353  0.83969175
Direct configuration=    28
   0.14100323  0.08955404  0.65336429
   0.35899677  0.41044596  0.84663571
   0.14100323  0.58955404  0.15336429
   0.35899677  0.91044596  0.34663571
   0.64100323  0.08955404  0.15336429
   0.85899677  0.41044596  0.34663571
   0.64100323  0.58955404  0.65336429
   0.85899677  0.91044596  0.84663571
Direct configuration=    29
   0.14317080  0.08859897  0.65540766
   0.35682920  0.41140103  0.84459234
   0.14317080  0.58859897  0.15540766
   0.35682920  0.91140103  0.34459234
   0.64317080  0.08859897  0.15540766
   0.85682920  0.41140103  0.34459234
   0.64317080  0.58859897  0.65540766
   0.85682920  0.91140103  0.84459234
Direct configuration=    30
   0.14967350  0.08573375  0.66153775
   0.35032650  0.41426625  0.83846225
   0.14967350  0.58573375  0.16153775
   0.35032650  0.91426625  0.33846225
   0.64967350  0.08573375  0.16153775
   0.85032650  0.41426625  0.33846225
   0.64967350  0.58573375  0.66153775
   0.85032650  0.91426625  0.83846225
Direct configuration=    31
   0.16267890  0.08000333  0.67379793
   0.33732110  0.41999667  0.82620207
   0.16267890  0.58000333  0.17379793
   0.33732110  0.91999667  0.32620207
   0.66267890  0.08000333  0.17379793
   0.83732110  0.41999667  0.32620207
   0.66267890  0.58000333  0.67379793
   0.83732110  0.91999667  0.82620207
Direct configuration=    32
   0.15489944  0.08343110  0.66646424
   0.34510056  0.41656890  0.83353576
   0.15489944  0.58343110  0.16646424
   0.34510056  0.91656890  0.33353576
   0.65489944  0.08343110  0.16646424
   0.84510056  0.41656890  0.33353576
   0.65489944  0.58343110  0.66646424
   0.84510056  0.91656890  0.83353576
Direct configuration=    33
   0.15742971  0.08388800  0.66562421
   0.34257029  0.41611200  0.83437579
   0.15742971  0.58388800  0.16562421
   0.34257029  0.91611200  0.33437579
   0.65742971  0.08388800  0.16562421
   0.84257029  0.41611200  0.33437579
   0.65742971  0.58388800  0.66562421
   0.84257029  0.91611200  0.83437579
Direct configuration=    34
   0.16065848  0.08447104  0.66455228
   0.33934152  0.41552896  0.83544772
   0.16065848  0.58447104  0.16455228
   0.33934152  0.91552896  0.33544772
   0.66065848  0.08447104  0.16455228
   0.83934152  0.41552896  0.33544772
   0.66065848  0.58447104  0.66455228
   0.83934152  0.91552896  0.83544772
Direct configuration=    35
   0.16092498  0.08439195  0.66479044
   0.33907502  0.41560805  0.83520956
   0.16092498  0.58439195  0.16479044
   0.33907502  0.91560805  0.33520956
   0.66092498  0.08439195  0.16479044
   0.83907502  0.41560805  0.33520956
   0.66092498  0.58439195  0.66479044
   0.83907502  0.91560805  0.83520956
Direct configuration=    36
   0.16172446  0.08415470  0.66550492
   0.33827554  0.41584530  0.83449508
   0.16172446  0.58415470  0.16550492
   0.33827554  0.91584530  0.33449508
   0.66172446  0.08415470  0.16550492
   0.83827554  0.41584530  0.33449508
   0.66172446  0.58415470  0.66550492
   0.83827554  0.91584530  0.83449508
Direct configuration=    37
   0.16332343  0.08368019  0.66693386
   0.33667657  0.41631981  0.83306614
   0.16332343  0.58368019  0.16693386
   0.33667657  0.91631981  0.33306614
   0.66332343  0.08368019  0.16693386
   0.83667657  0.41631981  0.33306614
   0.66332343  0.58368019  0.66693386
   0.83667657  0.91631981  0.83306614
Direct configuration=    38
   0.16297733  0.08378290  0.66662456
   0.33702267  0.41621710  0.83337544
   0.16297733  0.58378290  0.16662456
   0.33702267  0.91621710  0.33337544
   0.66297733  0.08378290  0.16662456
   0.83702267  0.41621710  0.33337544
   0.66297733  0.58378290  0.66662456
   0.83702267  0.91621710  0.83337544
Direct configuration=    39
   0.16315226  0.08326797  0.66660302
   0.33684774  0.41673203  0.83339698
   0.16315226  0.58326797  0.16660302
   0.33684774  0.91673203  0.33339698
   0.66315226  0.08326797  0.16660302
   0.83684774  0.41673203  0.33339698
   0.66315226  0.58326797  0.66660302
   0.83684774  0.91673203  0.83339698
Direct configuration=    40
   0.16313373  0.08332252  0.66660530
   0.33686627  0.41667748  0.83339470
   0.16313373  0.58332252  0.16660530
   0.33686627  0.91667748  0.33339470
   0.66313373  0.08332252  0.16660530
   0.83686627  0.41667748  0.33339470
   0.66313373  0.58332252  0.66660530
   0.83686627  0.91667748  0.83339470
Direct configuration=    41
   0.16314489  0.08333047  0.66656305
   0.33685511  0.41666953  0.83343695
   0.16314489  0.58333047  0.16656305
   0.33685511  0.91666953  0.33343695
   0.66314489  0.08333047  0.16656305
   0.83685511  0.41666953  0.33343695
   0.66314489  0.58333047  0.66656305
   0.83685511  0.91666953  0.83343695
Direct configuration=    42
   0.16314341  0.08332942  0.66656863
   0.33685659  0.41667058  0.83343137
   0.16314341  0.58332942  0.16656863
   0.33685659  0.91667058  0.33343137
   0.66314341  0.08332942  0.16656863
   0.83685659  0.41667058  0.33343137
   0.66314341  0.58332942  0.66656863
   0.83685659  0.91667058  0.83343137
