   8   8   0   0
  0.5266436E+02  0.4905403E-09  0.4905403E-09  0.2021747E-08  0.1000000E-14
   300.000000000000     
  CAR 
 unknown system                          
      5.20256928    -23.98643795  301     -3.61855231      1.00000000
    -23.986  0.0000E+00  0.0000E+00
    -23.889  0.0000E+00  0.0000E+00
    -23.792  0.0000E+00  0.0000E+00
    -23.695  0.0000E+00  0.0000E+00
    -23.597  0.4526E-25  0.4404E-26
    -23.500  0.7468E-22  0.7271E-23
    -23.403  0.7571E-19  0.7373E-20
    -23.305  0.4701E-16  0.4582E-17
    -23.208  0.1783E-13  0.1739E-14
    -23.111  0.4122E-11  0.4028E-12
    -23.013  0.5754E-09  0.5639E-10
    -22.916  0.4820E-07  0.4746E-08
    -22.819  0.2393E-05  0.2376E-06
    -22.722  0.6904E-04  0.6955E-05
    -22.624  0.1116E-02  0.1156E-03
    -22.527  0.9350E-02  0.1025E-02
    -22.430  0.3140E-01  0.4081E-02
    -22.332 -0.3034E-01  0.1129E-02
    -22.235 -0.3539E+00 -0.3330E-01
    -22.138 -0.1500E-01 -0.3476E-01
    -22.041  0.2680E+01  0.2260E+00
    -21.943  0.5043E+01  0.7167E+00
    -21.846  0.3127E+01  0.1021E+01
    -21.749  0.2095E+00  0.1041E+01
    -21.651 -0.3620E+00  0.1006E+01
    -21.554 -0.2092E+00  0.9857E+00
    -21.457 -0.3804E+00  0.9487E+00
    -21.359  0.9232E+00  0.1039E+01
    -21.262  0.4131E+01  0.1440E+01
    -21.165  0.4676E+01  0.1895E+01
    -21.068  0.1598E+01  0.2051E+01
    -20.970 -0.3306E+00  0.2019E+01
    -20.873 -0.2365E+00  0.1996E+01
    -20.776  0.1389E-01  0.1997E+01
    -20.678  0.2448E-01  0.1999E+01
    -20.581  0.5350E-02  0.2000E+01
    -20.484  0.2777E-02  0.2000E+01
    -20.386  0.1280E-01  0.2001E+01
    -20.289  0.2552E-01  0.2004E+01
    -20.192 -0.5274E-01  0.1999E+01
    -20.095 -0.2632E+00  0.1973E+01
    -19.997  0.1289E+00  0.1986E+01
    -19.900  0.2514E+01  0.2230E+01
    -19.803  0.6188E+01  0.2832E+01
    -19.705  0.7253E+01  0.3538E+01
    -19.608  0.4270E+01  0.3954E+01
    -19.511  0.9089E+00  0.4042E+01
    -19.413 -0.3361E+00  0.4009E+01
    -19.316 -0.5281E+00  0.3958E+01
    -19.219  0.1828E+00  0.3976E+01
    -19.122  0.3066E+01  0.4274E+01
    -19.024  0.5026E+01  0.4763E+01
    -18.927  0.2755E+01  0.5031E+01
    -18.830  0.3225E-01  0.5034E+01
    -18.732 -0.3577E+00  0.4999E+01
    -18.635 -0.3651E-01  0.4996E+01
    -18.538  0.3142E-01  0.4999E+01
    -18.441  0.1079E-01  0.5000E+01
    -18.343  0.8609E-02  0.5001E+01
    -18.246  0.2412E-01  0.5003E+01
    -18.149 -0.9587E-02  0.5002E+01
    -18.051 -0.2077E+00  0.4982E+01
    -17.954 -0.1003E+00  0.4972E+01
    -17.857  0.1491E+01  0.5117E+01
    -17.759  0.4341E+01  0.5540E+01
    -17.662  0.6377E+01  0.6160E+01
    -17.565  0.5829E+01  0.6727E+01
    -17.468  0.2878E+01  0.7007E+01
    -17.370  0.2695E+00  0.7034E+01
    -17.273 -0.3211E+00  0.7002E+01
    -17.176 -0.6961E-01  0.6996E+01
    -17.078  0.2972E-01  0.6998E+01
    -16.981  0.1394E-01  0.7000E+01
    -16.884  0.2273E-02  0.7000E+01
    -16.786  0.3939E-03  0.7000E+01
    -16.689  0.2657E-02  0.7000E+01
    -16.592  0.1654E-01  0.7002E+01
    -16.495  0.3044E-01  0.7005E+01
    -16.397 -0.1231E+00  0.6993E+01
    -16.300 -0.4131E+00  0.6953E+01
    -16.203  0.6918E+00  0.7020E+01
    -16.105  0.3855E+01  0.7395E+01
    -16.008  0.4806E+01  0.7863E+01
    -15.911  0.1901E+01  0.8048E+01
    -15.814 -0.2511E+00  0.8023E+01
    -15.716 -0.2506E+00  0.7999E+01
    -15.619  0.2473E-01  0.8001E+01
    -15.522 -0.1483E+00  0.7987E+01
    -15.424 -0.3501E+00  0.7953E+01
    -15.327  0.1148E+01  0.8064E+01
    -15.230  0.4197E+01  0.8473E+01
    -15.132  0.4225E+01  0.8884E+01
    -15.035  0.1368E+01  0.9017E+01
    -14.938  0.1528E+01  0.9166E+01
    -14.841  0.4688E+01  0.9622E+01
    -14.743  0.6474E+01  0.1025E+02
    -14.646  0.5392E+01  0.1078E+02
    -14.549  0.2461E+01  0.1102E+02
    -14.451  0.1424E+00  0.1103E+02
    -14.354 -0.2983E+00  0.1100E+02
    -14.257 -0.4939E-01  0.1100E+02
    -14.159  0.2967E-01  0.1100E+02
    -14.062  0.1411E-01  0.1100E+02
    -13.965  0.1681E-01  0.1100E+02
    -13.868  0.3217E-01  0.1100E+02
    -13.770 -0.1026E+00  0.1099E+02
    -13.673 -0.4150E+00  0.1095E+02
    -13.576  0.5329E+00  0.1101E+02
    -13.478  0.3665E+01  0.1136E+02
    -13.381  0.4906E+01  0.1184E+02
    -13.284  0.2112E+01  0.1205E+02
    -13.187 -0.2049E+00  0.1203E+02
    -13.089 -0.2877E+00  0.1200E+02
    -12.992  0.2502E-01  0.1200E+02
    -12.895  0.1819E-01  0.1200E+02
    -12.797 -0.3049E+00  0.1197E+02
    -12.700 -0.1637E+00  0.1196E+02
    -12.603  0.2262E+01  0.1218E+02
    -12.505  0.4962E+01  0.1266E+02
    -12.408  0.3531E+01  0.1300E+02
    -12.311  0.4488E+00  0.1305E+02
    -12.214 -0.4026E+00  0.1301E+02
    -12.116 -0.2181E+00  0.1299E+02
    -12.019 -0.1733E+00  0.1297E+02
    -11.922  0.7838E+00  0.1305E+02
    -11.824  0.3613E+01  0.1340E+02
    -11.727  0.6803E+01  0.1406E+02
    -11.630  0.6775E+01  0.1472E+02
    -11.532  0.3147E+01  0.1502E+02
    -11.435  0.1295E+00  0.1504E+02
    -11.338 -0.3728E+00  0.1500E+02
    -11.241 -0.5790E-01  0.1499E+02
    -11.143  0.3498E-01  0.1500E+02
    -11.046  0.1413E-01  0.1500E+02
    -10.949  0.2343E-02  0.1500E+02
    -10.851  0.2480E-02  0.1500E+02
    -10.754  0.1518E-01  0.1500E+02
    -10.657  0.3764E-01  0.1501E+02
    -10.559 -0.6036E-01  0.1500E+02
    -10.462 -0.3781E+00  0.1496E+02
    -10.365  0.1792E+00  0.1498E+02
    -10.268  0.3173E+01  0.1529E+02
    -10.170  0.6794E+01  0.1595E+02
    -10.073  0.8408E+01  0.1677E+02
     -9.976  0.7940E+01  0.1754E+02
     -9.878  0.4660E+01  0.1799E+02
     -9.781  0.5390E+00  0.1805E+02
     -9.684 -0.9335E+00  0.1796E+02
     -9.587  0.7136E+00  0.1802E+02
     -9.489  0.4582E+01  0.1847E+02
     -9.392  0.7164E+01  0.1917E+02
     -9.295  0.5911E+01  0.1974E+02
     -9.197  0.3968E+01  0.2013E+02
     -9.100  0.4155E+01  0.2053E+02
     -9.003  0.4148E+01  0.2094E+02
     -8.905  0.5044E+01  0.2143E+02
     -8.808  0.7755E+01  0.2218E+02
     -8.711  0.6780E+01  0.2284E+02
     -8.614  0.2234E+01  0.2306E+02
     -8.516 -0.3366E+00  0.2303E+02
     -8.419 -0.3122E+00  0.2300E+02
     -8.322  0.3500E-01  0.2300E+02
     -8.224  0.1601E-01  0.2300E+02
     -8.127 -0.3102E+00  0.2297E+02
     -8.030 -0.7947E-01  0.2296E+02
     -7.932  0.2418E+01  0.2320E+02
     -7.835  0.4936E+01  0.2368E+02
     -7.738  0.3176E+01  0.2399E+02
     -7.641  0.7863E-01  0.2400E+02
     -7.543  0.1054E+01  0.2410E+02
     -7.446  0.5408E+01  0.2462E+02
     -7.349  0.7841E+01  0.2539E+02
     -7.251  0.6597E+01  0.2603E+02
     -7.154  0.5154E+01  0.2653E+02
     -7.057  0.3756E+01  0.2690E+02
     -6.960  0.1303E+01  0.2702E+02
     -6.862 -0.4613E+00  0.2698E+02
     -6.765  0.9588E-01  0.2699E+02
     -6.668  0.3070E+01  0.2729E+02
     -6.570  0.5747E+01  0.2784E+02
     -6.473  0.6066E+01  0.2843E+02
     -6.376  0.4496E+01  0.2887E+02
     -6.278  0.1679E+01  0.2904E+02
     -6.181 -0.1536E+00  0.2902E+02
     -6.084 -0.2436E+00  0.2900E+02
     -5.987 -0.6027E-03  0.2900E+02
     -5.889  0.4243E-01  0.2900E+02
     -5.792  0.3770E-01  0.2900E+02
     -5.695 -0.8064E-01  0.2900E+02
     -5.597 -0.3408E+00  0.2896E+02
     -5.500  0.3361E+00  0.2900E+02
     -5.403  0.3174E+01  0.2931E+02
     -5.305  0.6289E+01  0.2992E+02
     -5.208  0.6528E+01  0.3055E+02
     -5.111  0.3907E+01  0.3093E+02
     -5.014  0.1019E+01  0.3103E+02
     -4.916 -0.1992E+00  0.3101E+02
     -4.819 -0.1580E+00  0.3100E+02
     -4.722  0.6677E-02  0.3100E+02
     -4.624  0.2089E-01  0.3100E+02
     -4.527  0.5545E-02  0.3100E+02
     -4.430  0.1047E-02  0.3100E+02
     -4.333  0.4201E-02  0.3100E+02
     -4.235  0.2128E-01  0.3100E+02
     -4.138  0.2039E-01  0.3100E+02
     -4.041 -0.1909E+00  0.3099E+02
     -3.943 -0.3632E+00  0.3095E+02
     -3.846  0.1236E+01  0.3107E+02
     -3.749  0.4353E+01  0.3149E+02
     -3.651  0.4406E+01  0.3192E+02
     -3.554  0.1301E+01  0.3205E+02
     -3.457 -0.3567E+00  0.3201E+02
     -3.360 -0.1991E+00  0.3200E+02
     -3.262  0.1918E-01  0.3200E+02
     -3.165  0.2185E-01  0.3200E+02
     -3.068  0.4333E-02  0.3200E+02
     -2.970  0.4007E-03  0.3200E+02
     -2.873  0.2005E-04  0.3200E+02
     -2.776  0.5760E-06  0.3200E+02
     -2.678  0.1630E-06  0.3200E+02
     -2.581  0.6362E-05  0.3200E+02
     -2.484  0.1530E-03  0.3200E+02
     -2.387  0.2041E-02  0.3200E+02
     -2.289  0.1367E-01  0.3200E+02
     -2.192  0.3063E-01  0.3200E+02
     -2.095 -0.8638E-01  0.3200E+02
     -1.997 -0.3871E+00  0.3196E+02
     -1.900  0.4127E+00  0.3200E+02
     -1.803  0.3372E+01  0.3233E+02
     -1.705  0.4883E+01  0.3280E+02
     -1.608  0.2399E+01  0.3304E+02
     -1.511 -0.6027E-01  0.3303E+02
     -1.414 -0.3170E+00  0.3300E+02
     -1.316 -0.2318E-01  0.3300E+02
     -1.219  0.3110E-01  0.3300E+02
     -1.122  0.2079E-01  0.3300E+02
     -1.024  0.2073E-01  0.3300E+02
     -0.927 -0.6955E-01  0.3300E+02
     -0.830 -0.2188E+00  0.3298E+02
     -0.733  0.3498E+00  0.3301E+02
     -0.635  0.2298E+01  0.3323E+02
     -0.538  0.4506E+01  0.3367E+02
     -0.441  0.5621E+01  0.3422E+02
     -0.343  0.5149E+01  0.3472E+02
     -0.246  0.2828E+01  0.3499E+02
     -0.149  0.3973E+00  0.3503E+02
     -0.051 -0.3001E+00  0.3500E+02
      0.046 -0.8181E-01  0.3500E+02
      0.143  0.2673E-01  0.3500E+02
      0.240  0.1426E-01  0.3500E+02
      0.338  0.4388E-02  0.3500E+02
      0.435  0.1410E-01  0.3500E+02
      0.532  0.3350E-01  0.3500E+02
      0.630 -0.7483E-01  0.3500E+02
      0.727 -0.3695E+00  0.3496E+02
      0.824  0.3513E+00  0.3500E+02
      0.922  0.3064E+01  0.3529E+02
      1.019  0.5154E+01  0.3580E+02
      1.116  0.5473E+01  0.3633E+02
      1.213  0.4902E+01  0.3680E+02
      1.311  0.2357E+01  0.3703E+02
      1.408  0.6149E-02  0.3703E+02
      1.505 -0.4123E+00  0.3699E+02
      1.603 -0.4215E+00  0.3695E+02
      1.700  0.4628E+00  0.3700E+02
      1.797  0.3495E+01  0.3734E+02
      1.894  0.6157E+01  0.3794E+02
      1.992  0.6398E+01  0.3856E+02
      2.089  0.5891E+01  0.3913E+02
      2.186  0.5319E+01  0.3965E+02
      2.284  0.3333E+01  0.3998E+02
      2.381  0.2476E+01  0.4022E+02
      2.478  0.5368E+01  0.4074E+02
      2.576  0.7128E+01  0.4143E+02
      2.673  0.4614E+01  0.4188E+02
      2.770  0.3248E+01  0.4220E+02
      2.867  0.4588E+01  0.4264E+02
      2.965  0.3147E+01  0.4295E+02
      3.062  0.7434E+00  0.4302E+02
      3.159  0.2710E+01  0.4329E+02
      3.257  0.4945E+01  0.4377E+02
      3.354  0.2731E+01  0.4403E+02
      3.451  0.7747E-02  0.4403E+02
      3.549 -0.3532E+00  0.4400E+02
      3.646 -0.3116E-01  0.4400E+02
      3.743  0.3149E-01  0.4400E+02
      3.840  0.9435E-02  0.4400E+02
      3.938  0.1131E-02  0.4400E+02
      4.035  0.7016E-04  0.4400E+02
      4.132  0.2439E-05  0.4400E+02
      4.230  0.4925E-07  0.4400E+02
      4.327  0.5895E-09  0.4400E+02
      4.424  0.4234E-11  0.4400E+02
      4.521  0.1826E-13  0.4400E+02
      4.619  0.0000E+00  0.4400E+02
      4.716  0.0000E+00  0.4400E+02
      4.813  0.0000E+00  0.4400E+02
      4.911  0.0000E+00  0.4400E+02
      5.008  0.0000E+00  0.4400E+02
      5.105  0.0000E+00  0.4400E+02
      5.203  0.0000E+00  0.4400E+02
