    8    8    1    1
  0.5266436E+02  0.4905403E-09  0.4905403E-09  0.2021747E-08  0.1000000E-14
   300.000000000000     
  CAR 
 unknown system                          
     32      6     22
 
  0.2500000E+00  0.2500000E+00  0.0000000E+00  0.1666667E+00
    1      -21.985191   1.000000
    2      -19.082375   1.000000
    3      -17.776217   1.000000
    4      -17.595942   1.000000
    5      -14.872926   1.000000
    6      -14.680107   1.000000
    7      -13.460825   1.000000
    8      -10.235178   1.000000
    9      -10.117220   1.000000
   10       -9.983487   1.000000
   11       -8.762259   1.000000
   12       -7.179653   1.000000
   13       -6.620133   1.000000
   14       -6.427904   1.000000
   15       -5.373362   1.000000
   16       -5.224124   1.000000
   17       -0.573118   0.000000
   18       -0.366752   0.000000
   19        0.936858   0.000000
   20        1.159256   0.000000
   21        1.818861   0.000000
   22        2.162406   0.000000
 
  0.0000000E+00  0.2500000E+00  0.0000000E+00  0.1666667E+00
    1      -21.986438   1.000000
    2      -19.062929   1.000000
    3      -17.830609   1.000000
    4      -17.561202   1.000000
    5      -14.913117   1.000000
    6      -14.657200   1.000000
    7      -13.444779   1.000000
    8      -10.267912   1.000000
    9      -10.039455   1.000000
   10       -9.985461   1.000000
   11       -8.810915   1.000000
   12       -7.083745   1.000000
   13       -6.658248   1.000000
   14       -6.499399   1.000000
   15       -5.413511   1.000000
   16       -5.148705   1.000000
   17       -0.652183   0.000000
   18       -0.339554   0.000000
   19        0.962472   0.000000
   20        1.166473   0.000000
   21        1.819207   0.000000
   22        2.162272   0.000000
 
 -0.2500000E+00 -0.1599532E-17  0.0000000E+00  0.1666667E+00
    1      -21.985213   1.000000
    2      -19.085895   1.000000
    3      -17.693366   1.000000
    4      -17.673763   1.000000
    5      -14.803978   1.000000
    6      -14.765544   1.000000
    7      -13.450568   1.000000
    8      -10.186995   1.000000
    9      -10.159025   1.000000
   10       -9.984001   1.000000
   11       -8.755849   1.000000
   12       -7.182626   1.000000
   13       -6.624025   1.000000
   14       -6.430355   1.000000
   15       -5.315246   1.000000
   16       -5.272437   1.000000
   17       -0.510016   0.000000
   18       -0.451067   0.000000
   19        0.962523   0.000000
   20        1.147915   0.000000
   21        1.818703   0.000000
   22        2.162186   0.000000
 
 -0.2500000E+00  0.2500000E+00  0.0000000E+00  0.1666667E+00
    1      -21.253003   1.000000
    2      -19.819869   1.000000
    3      -19.740227   1.000000
    4      -16.071798   1.000000
    5      -15.248871   1.000000
    6      -12.532855   1.000000
    7      -11.781444   1.000000
    8      -11.685912   1.000000
    9       -9.468962   1.000000
   10       -9.352379   1.000000
   11       -9.114353   1.000000
   12       -8.869301   1.000000
   13       -7.889444   1.000000
   14       -7.426896   1.000000
   15       -7.375885   1.000000
   16       -3.731373   0.971657
   17       -1.789349   0.000000
   18        1.982615   0.000000
   19        2.476202   0.000000
   20        2.545831   0.000000
   21        2.841702   0.000000
   22        3.201831   0.000000
 
  0.5000000E+00 -0.2500000E+00  0.0000000E+00  0.1666667E+00
    1      -21.246561   1.000000
    2      -19.916808   1.000000
    3      -19.649212   1.000000
    4      -16.096004   1.000000
    5      -15.199726   1.000000
    6      -12.534728   1.000000
    7      -11.881079   1.000000
    8      -11.626805   1.000000
    9       -9.496136   1.000000
   10       -9.307710   1.000000
   11       -9.099219   1.000000
   12       -8.919458   1.000000
   13       -7.849443   1.000000
   14       -7.513531   1.000000
   15       -7.287700   1.000000
   16       -3.769181   1.033263
   17       -1.740333   0.000000
   18        1.986655   0.000000
   19        2.374209   0.000000
   20        2.643904   0.000000
   21        2.841523   0.000000
   22        3.202569   0.000000
 
 -0.2500000E+00  0.5000000E+00  0.0000000E+00  0.1666667E+00
    1      -21.252955   1.000000
    2      -19.805995   1.000000
    3      -19.754696   1.000000
    4      -16.088048   1.000000
    5      -15.223585   1.000000
    6      -12.540696   1.000000
    7      -11.764981   1.000000
    8      -11.692899   1.000000
    9       -9.494773   1.000000
   10       -9.369747   1.000000
   11       -9.114961   1.000000
   12       -8.853385   1.000000
   13       -7.868999   1.000000
   14       -7.430284   1.000000
   15       -7.377092   1.000000
   16       -3.742483   0.995080
   17       -1.775469   0.000000
   18        1.974345   0.000000
   19        2.503098   0.000000
   20        2.530734   0.000000
   21        2.843632   0.000000
   22        3.202360   0.000000
