   8   8   0   0
  0.4043808E+01  0.3284963E-09  0.3948717E-09  0.2548109E-09  0.5000000E-15
  1.000000000000000E-004
  CAR 
 unknown system                          
     30.59127050    -12.78947519  301     17.23882118      1.00000000
    -12.789  0.0000E+00  0.0000E+00
    -12.645  0.0000E+00  0.0000E+00
    -12.500  0.0000E+00  0.0000E+00
    -12.356  0.0000E+00  0.0000E+00
    -12.211  0.0000E+00  0.0000E+00
    -12.066  0.0000E+00  0.0000E+00
    -11.922  0.0000E+00  0.0000E+00
    -11.777  0.0000E+00  0.0000E+00
    -11.633  0.0000E+00  0.0000E+00
    -11.488  0.0000E+00  0.0000E+00
    -11.343  0.7462E-16  0.1079E-16
    -11.199  0.5038E-10  0.7285E-11
    -11.054  0.5900E-06  0.8532E-07
    -10.910  0.1401E-03  0.2035E-04
    -10.765  0.1299E-02  0.2082E-03
    -10.620  0.2721E-02  0.6017E-03
    -10.476  0.1505E-02  0.8193E-03
    -10.331  0.9713E-04  0.8333E-03
    -10.187  0.7450E-05  0.8344E-03
    -10.042  0.4226E-03  0.8955E-03
     -9.897  0.1097E-02  0.1054E-02
     -9.753  0.1123E-02  0.1216E-02
     -9.608  0.1667E-02  0.1458E-02
     -9.464  0.2891E-02  0.1876E-02
     -9.319  0.1284E-02  0.2061E-02
     -9.174  0.8799E-03  0.2188E-02
     -9.030  0.1871E-02  0.2459E-02
     -8.885  0.5641E-03  0.2540E-02
     -8.741  0.1282E-02  0.2726E-02
     -8.596  0.1157E-02  0.2893E-02
     -8.451  0.2476E-03  0.2929E-02
     -8.307  0.2588E-02  0.3303E-02
     -8.162  0.4929E-02  0.4016E-02
     -8.018  0.3393E-02  0.4507E-02
     -7.873  0.1860E-02  0.4776E-02
     -7.728  0.1067E-02  0.4930E-02
     -7.584  0.2986E-02  0.5362E-02
     -7.439  0.1785E-02  0.5620E-02
     -7.295  0.1084E-02  0.5776E-02
     -7.150  0.2335E-02  0.6114E-02
     -7.005  0.2422E-02  0.6464E-02
     -6.861  0.1549E-02  0.6688E-02
     -6.716  0.1964E-02  0.6972E-02
     -6.572  0.2292E-02  0.7304E-02
     -6.427  0.2161E-02  0.7616E-02
     -6.282  0.3972E-02  0.8191E-02
     -6.138  0.5542E-02  0.8992E-02
     -5.993  0.1846E-02  0.9259E-02
     -5.849  0.2382E-02  0.9603E-02
     -5.704  0.1692E-02  0.9848E-02
     -5.559  0.2213E-02  0.1017E-01
     -5.415  0.2212E-02  0.1049E-01
     -5.270  0.3269E-02  0.1096E-01
     -5.126  0.2016E-02  0.1125E-01
     -4.981  0.2222E-02  0.1157E-01
     -4.836  0.1329E-02  0.1177E-01
     -4.692  0.3143E-02  0.1222E-01
     -4.547  0.3764E-02  0.1276E-01
     -4.403  0.2572E-02  0.1314E-01
     -4.258  0.3433E-02  0.1363E-01
     -4.113  0.1644E-02  0.1387E-01
     -3.969  0.1229E-02  0.1405E-01
     -3.824  0.2443E-02  0.1440E-01
     -3.680  0.5680E-02  0.1522E-01
     -3.535  0.6062E-02  0.1610E-01
     -3.390  0.3446E-02  0.1660E-01
     -3.246  0.4747E-02  0.1728E-01
     -3.101  0.4339E-02  0.1791E-01
     -2.957  0.2773E-02  0.1831E-01
     -2.812  0.1545E-02  0.1854E-01
     -2.667  0.1584E-02  0.1876E-01
     -2.523  0.2092E-02  0.1907E-01
     -2.378  0.1902E-02  0.1934E-01
     -2.233  0.1664E-02  0.1958E-01
     -2.089  0.5500E-02  0.2038E-01
     -1.944  0.2301E-02  0.2071E-01
     -1.800  0.4354E-02  0.2134E-01
     -1.655  0.6171E-02  0.2223E-01
     -1.510  0.3820E-02  0.2279E-01
     -1.366  0.5540E-02  0.2359E-01
     -1.221  0.6173E-02  0.2448E-01
     -1.077  0.2610E-02  0.2486E-01
     -0.932  0.4297E-02  0.2548E-01
     -0.787  0.3242E-02  0.2595E-01
     -0.643  0.1939E-02  0.2623E-01
     -0.498  0.4751E-02  0.2691E-01
     -0.354  0.3717E-02  0.2745E-01
     -0.209  0.3165E-02  0.2791E-01
     -0.064  0.2521E-02  0.2827E-01
      0.080  0.3396E-02  0.2876E-01
      0.225  0.4703E-02  0.2944E-01
      0.369  0.4235E-02  0.3006E-01
      0.514  0.4327E-02  0.3068E-01
      0.659  0.3874E-02  0.3124E-01
      0.803  0.4152E-02  0.3184E-01
      0.948  0.1681E-02  0.3209E-01
      1.092  0.1332E-02  0.3228E-01
      1.237  0.1832E-02  0.3254E-01
      1.382  0.2282E-02  0.3287E-01
      1.526  0.5069E-03  0.3295E-01
      1.671  0.2116E-02  0.3325E-01
      1.815  0.5687E-02  0.3408E-01
      1.960  0.6832E-02  0.3506E-01
      2.105  0.6109E-02  0.3595E-01
      2.249  0.6643E-02  0.3691E-01
      2.394  0.5893E-02  0.3776E-01
      2.538  0.7139E-02  0.3879E-01
      2.683  0.5955E-02  0.3965E-01
      2.828  0.1467E-02  0.3986E-01
      2.972  0.3702E-02  0.4040E-01
      3.117  0.6409E-02  0.4133E-01
      3.261  0.6372E-02  0.4225E-01
      3.406  0.6772E-02  0.4323E-01
      3.551  0.8902E-02  0.4451E-01
      3.695  0.7808E-02  0.4564E-01
      3.840  0.2601E-02  0.4602E-01
      3.984  0.2172E-02  0.4633E-01
      4.129  0.4857E-02  0.4704E-01
      4.274  0.5228E-02  0.4779E-01
      4.418  0.5902E-02  0.4865E-01
      4.563  0.5194E-02  0.4940E-01
      4.707  0.5018E-02  0.5012E-01
      4.852  0.3857E-02  0.5068E-01
      4.997  0.5447E-02  0.5147E-01
      5.141  0.7210E-02  0.5251E-01
      5.286  0.7390E-02  0.5358E-01
      5.430  0.6395E-02  0.5450E-01
      5.575  0.5811E-02  0.5534E-01
      5.720  0.8819E-02  0.5662E-01
      5.864  0.5012E-02  0.5734E-01
      6.009  0.2661E-02  0.5773E-01
      6.153  0.5863E-02  0.5858E-01
      6.298  0.7508E-02  0.5966E-01
      6.443  0.4142E-02  0.6026E-01
      6.587  0.4715E-02  0.6094E-01
      6.732  0.4829E-02  0.6164E-01
      6.876  0.4591E-02  0.6231E-01
      7.021  0.4789E-02  0.6300E-01
      7.166  0.5141E-02  0.6374E-01
      7.310  0.5843E-02  0.6459E-01
      7.455  0.6302E-02  0.6550E-01
      7.599  0.8171E-02  0.6668E-01
      7.744  0.8897E-02  0.6797E-01
      7.889  0.5063E-02  0.6870E-01
      8.033  0.3886E-02  0.6926E-01
      8.178  0.4783E-02  0.6995E-01
      8.322  0.4253E-02  0.7057E-01
      8.467  0.5096E-02  0.7130E-01
      8.612  0.5613E-02  0.7211E-01
      8.756  0.6552E-02  0.7306E-01
      8.901  0.3844E-02  0.7362E-01
      9.046  0.2718E-02  0.7401E-01
      9.190  0.5775E-02  0.7485E-01
      9.335  0.7627E-02  0.7595E-01
      9.479  0.4567E-02  0.7661E-01
      9.624  0.4074E-02  0.7720E-01
      9.769  0.6765E-02  0.7818E-01
      9.913  0.6917E-02  0.7918E-01
     10.058  0.6281E-02  0.8008E-01
     10.202  0.4363E-02  0.8072E-01
     10.347  0.3153E-02  0.8117E-01
     10.492  0.5076E-02  0.8191E-01
     10.636  0.5134E-02  0.8265E-01
     10.781  0.3869E-02  0.8321E-01
     10.925  0.2390E-02  0.8355E-01
     11.070  0.2875E-02  0.8397E-01
     11.215  0.4290E-02  0.8459E-01
     11.359  0.4699E-02  0.8527E-01
     11.504  0.3246E-02  0.8574E-01
     11.648  0.4958E-02  0.8645E-01
     11.793  0.6771E-02  0.8743E-01
     11.938  0.7481E-02  0.8852E-01
     12.082  0.5448E-02  0.8930E-01
     12.227  0.2832E-02  0.8971E-01
     12.371  0.4088E-02  0.9030E-01
     12.516  0.6559E-02  0.9125E-01
     12.661  0.2344E-02  0.9159E-01
     12.805  0.4417E-02  0.9223E-01
     12.950  0.4451E-02  0.9287E-01
     13.094  0.5131E-02  0.9362E-01
     13.239  0.7668E-02  0.9472E-01
     13.384  0.5401E-02  0.9551E-01
     13.528  0.2997E-02  0.9594E-01
     13.673  0.2843E-02  0.9635E-01
     13.817  0.2280E-02  0.9668E-01
     13.962  0.1601E-02  0.9691E-01
     14.107  0.2339E-02  0.9725E-01
     14.251  0.4041E-02  0.9783E-01
     14.396  0.2230E-02  0.9816E-01
     14.540  0.3272E-02  0.9863E-01
     14.685  0.3316E-02  0.9911E-01
     14.830  0.5139E-03  0.9918E-01
     14.974  0.2460E-02  0.9954E-01
     15.119  0.3903E-02  0.1001E+00
     15.263  0.4148E-02  0.1007E+00
     15.408  0.3429E-02  0.1012E+00
     15.553  0.1845E-02  0.1015E+00
     15.697  0.1646E-02  0.1017E+00
     15.842  0.1853E-02  0.1020E+00
     15.986  0.1861E-02  0.1022E+00
     16.131  0.2451E-02  0.1026E+00
     16.276  0.2543E-02  0.1030E+00
     16.420  0.1165E-02  0.1031E+00
     16.565  0.2248E-02  0.1035E+00
     16.709  0.5262E-02  0.1042E+00
     16.854  0.6353E-02  0.1051E+00
     16.999  0.3949E-02  0.1057E+00
     17.143  0.3012E-02  0.1061E+00
     17.288  0.6192E-02  0.1070E+00
     17.432  0.6840E-02  0.1080E+00
     17.577  0.4462E-02  0.1087E+00
     17.722  0.2839E-02  0.1091E+00
     17.866  0.4188E-02  0.1097E+00
     18.011  0.3693E-02  0.1102E+00
     18.155  0.6709E-02  0.1112E+00
     18.300  0.6266E-02  0.1121E+00
     18.445  0.3093E-02  0.1125E+00
     18.589  0.2024E-02  0.1128E+00
     18.734  0.1849E-02  0.1131E+00
     18.878  0.1634E-02  0.1133E+00
     19.023  0.4493E-02  0.1140E+00
     19.168  0.1792E-02  0.1143E+00
     19.312  0.3615E-02  0.1148E+00
     19.457  0.4112E-02  0.1154E+00
     19.601  0.4167E-02  0.1160E+00
     19.746  0.5875E-02  0.1168E+00
     19.891  0.3936E-02  0.1174E+00
     20.035  0.4703E-02  0.1181E+00
     20.180  0.2647E-02  0.1185E+00
     20.324  0.2689E-02  0.1188E+00
     20.469  0.4119E-02  0.1194E+00
     20.614  0.4340E-02  0.1201E+00
     20.758  0.3250E-02  0.1205E+00
     20.903  0.4867E-02  0.1212E+00
     21.048  0.4216E-02  0.1218E+00
     21.192  0.5681E-02  0.1227E+00
     21.337  0.6492E-02  0.1236E+00
     21.481  0.3429E-02  0.1241E+00
     21.626  0.2762E-02  0.1245E+00
     21.771  0.5163E-02  0.1253E+00
     21.915  0.7763E-02  0.1264E+00
     22.060  0.3664E-02  0.1269E+00
     22.204  0.2364E-02  0.1272E+00
     22.349  0.2548E-02  0.1276E+00
     22.494  0.2861E-02  0.1280E+00
     22.638  0.1959E-02  0.1283E+00
     22.783  0.3733E-02  0.1289E+00
     22.927  0.4900E-02  0.1296E+00
     23.072  0.4563E-02  0.1302E+00
     23.217  0.6749E-02  0.1312E+00
     23.361  0.7586E-02  0.1323E+00
     23.506  0.6633E-02  0.1333E+00
     23.650  0.6194E-02  0.1341E+00
     23.795  0.1592E-02  0.1344E+00
     23.940  0.1964E-02  0.1347E+00
     24.084  0.5122E-02  0.1354E+00
     24.229  0.6926E-02  0.1364E+00
     24.373  0.9820E-02  0.1378E+00
     24.518  0.5312E-02  0.1386E+00
     24.663  0.4885E-02  0.1393E+00
     24.807  0.5959E-02  0.1402E+00
     24.952  0.4550E-02  0.1408E+00
     25.096  0.3966E-02  0.1414E+00
     25.241  0.3465E-02  0.1419E+00
     25.386  0.4346E-02  0.1425E+00
     25.530  0.3970E-02  0.1431E+00
     25.675  0.2498E-02  0.1435E+00
     25.819  0.2018E-02  0.1437E+00
     25.964  0.2048E-02  0.1440E+00
     26.109  0.2041E-02  0.1443E+00
     26.253  0.1008E-02  0.1445E+00
     26.398  0.1248E-02  0.1447E+00
     26.542  0.1669E-02  0.1449E+00
     26.687  0.9157E-03  0.1450E+00
     26.832  0.1007E-02  0.1452E+00
     26.976  0.1864E-03  0.1452E+00
     27.121  0.8258E-03  0.1453E+00
     27.265  0.1985E-02  0.1456E+00
     27.410  0.1301E-02  0.1458E+00
     27.555  0.1703E-02  0.1461E+00
     27.699  0.1638E-02  0.1463E+00
     27.844  0.1035E-02  0.1464E+00
     27.988  0.1389E-03  0.1465E+00
     28.133  0.5924E-06  0.1465E+00
     28.278  0.1017E-08  0.1465E+00
     28.422  0.3812E-05  0.1465E+00
     28.567  0.3255E-03  0.1465E+00
     28.711  0.9723E-03  0.1466E+00
     28.856  0.1385E-03  0.1467E+00
     29.001  0.5898E-06  0.1467E+00
     29.145  0.5038E-10  0.1467E+00
     29.290  0.7454E-16  0.1467E+00
     29.434  0.0000E+00  0.1467E+00
     29.579  0.0000E+00  0.1467E+00
     29.724  0.0000E+00  0.1467E+00
     29.868  0.0000E+00  0.1467E+00
     30.013  0.0000E+00  0.1467E+00
     30.157  0.0000E+00  0.1467E+00
     30.302  0.0000E+00  0.1467E+00
     30.447  0.0000E+00  0.1467E+00
     30.591  0.0000E+00  0.1467E+00
