    8    8  300    1
  0.4043808E+01  0.3284963E-09  0.3948717E-09  0.2548108E-09  0.5000000E-15
  1.000000000000000E-004
  CAR 
 unknown system                          
     32     32     22
 
  0.1250000E+00  0.1250000E+00  0.1250000E+00  0.3125000E-01
    1      -10.683432   1.000000
    2       -5.611035   1.000000
    3       -2.155582   1.000000
    4       -0.891412   1.000000
    5        2.065309   1.000000
    6        2.096420   1.000000
    7        2.928514   1.000000
    8        4.343594   1.000000
    9        7.484510   1.000000
   10        7.642391   1.000000
   11        9.262445   1.000000
   12        9.280083   1.000000
   13        9.906338   1.000000
   14       12.999291   1.000000
   15       15.024838   1.000000
   16       15.983548   1.000000
   17       18.881583   0.000000
   18       18.929206   0.000000
   19       20.474449   0.000000
   20       20.604275   0.000000
   21       24.969115   0.000000
   22       26.013253   0.000000
 
  0.3750000E+00  0.1250000E+00  0.1250000E+00  0.3125000E-01
    1       -9.404201   1.000000
    2       -6.263170   1.000000
    3       -4.607330   1.000000
    4       -0.968377   1.000000
    5        0.387426   1.000000
    6        2.211906   1.000000
    7        4.997251   1.000000
    8        5.212786   1.000000
    9        7.298526   1.000000
   10        8.192982   1.000000
   11        9.155609   1.000000
   12       10.650813   1.000000
   13       10.953084   1.000000
   14       11.549778   1.000000
   15       15.650090   1.000000
   16       15.845810   1.000000
   17       18.116521   0.000000
   18       19.926280   0.000000
   19       20.495727   0.000000
   20       23.303144   0.000000
   21       23.412461   0.000000
   22       25.016949   0.000000
 
 -0.3750000E+00  0.1250000E+00  0.1250000E+00  0.3125000E-01
    1       -9.103022   1.000000
    2       -6.775526   1.000000
    3       -3.735729   1.000000
    4       -2.453469   1.000000
    5        0.160448   1.000000
    6        2.550206   1.000000
    7        3.577270   1.000000
    8        7.029664   1.000000
    9        8.539765   1.000000
   10        8.955553   1.000000
   11        9.966653   1.000000
   12       10.504355   1.000000
   13       11.263671   1.000000
   14       12.440325   1.000000
   15       13.156736   1.000000
   16       14.023733   1.000000
   17       19.776041   0.000000
   18       19.985710   0.000000
   19       21.416087   0.000000
   20       23.020808   0.000000
   21       23.242437   0.000000
   22       23.551685   0.000000
 
 -0.1250000E+00  0.1250000E+00  0.1250000E+00  0.3125000E-01
    1      -10.583817   1.000000
    2       -5.321991   1.000000
    3       -2.896085   1.000000
    4       -0.967773   1.000000
    5        0.253102   1.000000
    6        3.113271   1.000000
    7        3.453357   1.000000
    8        4.563314   1.000000
    9        7.129017   1.000000
   10        9.349203   1.000000
   11       10.039524   1.000000
   12       10.043575   1.000000
   13       10.176757   1.000000
   14       12.717194   1.000000
   15       14.171565   1.000000
   16       15.428935   1.000000
   17       17.896559   0.000000
   18       19.203881   0.000000
   19       20.172816   0.000000
   20       21.272860   0.000000
   21       23.157615   0.000000
   22       24.614343   0.000000
 
  0.1250000E+00  0.3750000E+00  0.1250000E+00  0.3125000E-01
    1       -9.600076   1.000000
    2       -8.257503   1.000000
    3       -1.393275   1.000000
    4        0.360164   1.000000
    5        2.211793   1.000000
    6        3.059803   1.000000
    7        3.433707   1.000000
    8        4.706589   1.000000
    9        6.159668   1.000000
   10        7.345624   1.000000
   11        7.790221   1.000000
   12        8.805054   1.000000
   13       10.474487   1.000000
   14       11.729864   1.000000
   15       16.732470   1.000000
   16       17.303593   0.179831
   17       18.338013   0.000000
   18       20.299668   0.000000
   19       20.467783   0.000000
   20       22.369973   0.000000
   21       22.706167   0.000000
   22       24.367503   0.000000
 
  0.3750000E+00  0.3750000E+00  0.1250000E+00  0.3125000E-01
    1       -8.288009   1.000000
    2       -7.149485   1.000000
    3       -5.364664   1.000000
    4       -3.556643   1.000000
    5        4.192271   1.000000
    6        5.074644   1.000000
    7        5.533402   1.000000
    8        5.627489   1.000000
    9        6.131667   1.000000
   10        7.445444   1.000000
   11        8.724367   1.000000
   12        9.755964   1.000000
   13       10.072184   1.000000
   14       11.064294   1.000000
   15       15.180100   1.000000
   16       16.589242   1.000000
   17       17.871403   0.000000
   18       18.633959   0.000000
   19       18.944132   0.000000
   20       23.320584   0.000000
   21       24.001380   0.000000
   22       25.248279   0.000000
 
 -0.3750000E+00  0.3750000E+00  0.1250000E+00  0.3125000E-01
    1       -8.122973   1.000000
    2       -6.436867   1.000000
    3       -5.644920   1.000000
    4       -4.768665   1.000000
    5        3.294640   1.000000
    6        4.296283   1.000000
    7        6.206026   1.000000
    8        6.317749   1.000000
    9        7.652663   1.000000
   10        7.861215   1.000000
   11        8.660382   1.000000
   12       10.741880   1.000000
   13       11.764259   1.000000
   14       12.128764   1.000000
   15       12.715255   1.000000
   16       13.260992   1.000000
   17       18.312735   0.000000
   18       19.519085   0.000000
   19       19.791374   0.000000
   20       21.822985   0.000000
   21       22.720700   0.000000
   22       25.378503   0.000000
 
 -0.1250000E+00  0.3750000E+00  0.1250000E+00  0.3125000E-01
    1       -9.545377   1.000000
    2       -8.021458   1.000000
    3       -1.794808   1.000000
    4       -1.389878   1.000000
    5        3.103591   1.000000
    6        3.362009   1.000000
    7        3.576602   1.000000
    8        4.939589   1.000000
    9        6.566599   1.000000
   10        6.724006   1.000000
   11        8.780155   1.000000
   12       10.556990   1.000000
   13       11.139217   1.000000
   14       12.780935   1.000000
   15       13.177267   1.000000
   16       16.543666   1.000000
   17       18.107914   0.000000
   18       19.578571   0.000000
   19       21.714393   0.000000
   20       21.790666   0.000000
   21       22.182921   0.000000
   22       24.548556   0.000000
 
  0.1250000E+00 -0.3750000E+00  0.1250000E+00  0.3125000E-01
    1      -10.004467   1.000000
    2       -7.577614   1.000000
    3       -1.224832   1.000000
    4        0.098954   1.000000
    5        1.849292   1.000000
    6        1.933600   1.000000
    7        4.256383   1.000000
    8        5.050057   1.000000
    9        5.152669   1.000000
   10        7.265435   1.000000
   11        9.171532   1.000000
   12        9.555931   1.000000
   13        9.678931   1.000000
   14       11.967840   1.000000
   15       16.878817   1.000000
   16       17.432061   0.003140
   17       18.208874   0.000000
   18       19.328460   0.000000
   19       20.834105   0.000000
   20       23.566113   0.000000
   21       24.244011   0.000000
   22       24.764994   0.000000
 
  0.3750000E+00 -0.3750000E+00  0.1250000E+00  0.3125000E-01
    1       -8.824000   1.000000
    2       -6.245721   1.000000
    3       -5.347304   1.000000
    4       -3.588538   1.000000
    5        2.454774   1.000000
    6        5.329928   1.000000
    7        5.633401   1.000000
    8        5.668394   1.000000
    9        7.520059   1.000000
   10        7.626115   1.000000
   11        7.762121   1.000000
   12        9.187882   1.000000
   13        9.845917   1.000000
   14       12.025535   1.000000
   15       15.183920   1.000000
   16       16.991091   0.999770
   17       17.772215   0.000000
   18       19.640593   0.000000
   19       20.809459   0.000000
   20       22.863854   0.000000
   21       24.276589   0.000000
   22       25.409236   0.000000
 
 -0.3750000E+00 -0.3750000E+00  0.1250000E+00  0.3125000E-01
    1       -8.253956   1.000000
    2       -6.316526   1.000000
    3       -6.219285   1.000000
    4       -3.628944   1.000000
    5        3.372872   1.000000
    6        3.761886   1.000000
    7        4.092209   1.000000
    8        6.408175   1.000000
    9        8.073887   1.000000
   10        8.672682   1.000000
   11        9.787028   1.000000
   12       10.748932   1.000000
   13       11.103099   1.000000
   14       11.590956   1.000000
   15       13.070976   1.000000
   16       13.309516   1.000000
   17       17.593676   0.000000
   18       21.301902   0.000000
   19       21.478647   0.000000
   20       21.626012   0.000000
   21       24.356034   0.000000
   22       24.959236   0.000000
 
 -0.1250000E+00 -0.3750000E+00  0.1250000E+00  0.3125000E-01
    1       -9.816034   1.000000
    2       -7.568550   1.000000
    3       -2.631183   1.000000
    4        0.059490   1.000000
    5        2.373818   1.000000
    6        3.514822   1.000000
    7        3.655673   1.000000
    8        4.315129   1.000000
    9        4.837478   1.000000
   10        7.662226   1.000000
   11        9.396967   1.000000
   12       11.286046   1.000000
   13       11.843379   1.000000
   14       12.210569   1.000000
   15       14.498049   1.000000
   16       14.619823   1.000000
   17       16.217103   1.000000
   18       21.977924   0.000000
   19       22.401575   0.000000
   20       23.560577   0.000000
   21       24.235829   0.000000
   22       24.347743   0.000000
 
  0.1250000E+00 -0.1250000E+00  0.1250000E+00  0.3125000E-01
    1      -10.817623   1.000000
    2       -4.647920   1.000000
    3       -2.147035   1.000000
    4       -2.099562   1.000000
    5        1.710765   1.000000
    6        1.964319   1.000000
    7        3.603633   1.000000
    8        4.572729   1.000000
    9        6.164943   1.000000
   10        8.151571   1.000000
   11        9.106649   1.000000
   12        9.221584   1.000000
   13       11.873412   1.000000
   14       12.377705   1.000000
   15       15.163534   1.000000
   16       16.033778   1.000000
   17       17.326616   0.107191
   18       19.963890   0.000000
   19       21.183583   0.000000
   20       21.772538   0.000000
   21       25.491281   0.000000
   22       25.822172   0.000000
 
  0.3750000E+00 -0.1250000E+00  0.1250000E+00  0.3125000E-01
    1       -9.581840   1.000000
    2       -6.257944   1.000000
    3       -3.317468   1.000000
    4       -1.312994   1.000000
    5       -1.003326   1.000000
    6        2.185326   1.000000
    7        5.850989   1.000000
    8        6.043060   1.000000
    9        6.519308   1.000000
   10        7.133810   1.000000
   11        8.576923   1.000000
   12       10.150006   1.000000
   13       11.563264   1.000000
   14       12.839096   1.000000
   15       15.328863   1.000000
   16       16.580667   1.000000
   17       19.592675   0.000000
   18       20.647718   0.000000
   19       21.140228   0.000000
   20       21.878786   0.000000
   21       23.968396   0.000000
   22       23.984536   0.000000
 
 -0.3750000E+00 -0.1250000E+00  0.1250000E+00  0.3125000E-01
    1       -9.146891   1.000000
    2       -6.997634   1.000000
    3       -3.428046   1.000000
    4       -0.808690   1.000000
    5       -0.250733   1.000000
    6        0.402036   1.000000
    7        4.534524   1.000000
    8        5.538313   1.000000
    9        9.135545   1.000000
   10        9.254039   1.000000
   11        9.807537   1.000000
   12       10.890981   1.000000
   13       11.758412   1.000000
   14       12.395247   1.000000
   15       12.416240   1.000000
   16       14.468578   1.000000
   17       18.964220   0.000000
   18       21.262645   0.000000
   19       22.981620   0.000000
   20       23.480009   0.000000
   21       23.943337   0.000000
   22       24.150521   0.000000
 
 -0.1250000E+00 -0.1250000E+00  0.1250000E+00  0.3125000E-01
    1      -10.673812   1.000000
    2       -4.683649   1.000000
    3       -3.170607   1.000000
    4       -1.794405   1.000000
    5        1.880998   1.000000
    6        2.519455   1.000000
    7        3.194613   1.000000
    8        4.472536   1.000000
    9        5.356253   1.000000
   10        9.612574   1.000000
   11       10.308456   1.000000
   12       10.384622   1.000000
   13       11.622212   1.000000
   14       13.165780   1.000000
   15       13.592106   1.000000
   16       14.972056   1.000000
   17       16.961982   0.999955
   18       19.003572   0.000000
   19       20.923907   0.000000
   20       22.997529   0.000000
   21       24.370000   0.000000
   22       24.712724   0.000000
 
  0.1250000E+00  0.1250000E+00  0.3750000E+00  0.3125000E-01
    1       -8.321001   1.000000
    2       -4.325137   1.000000
    3       -3.647213   1.000000
    4        0.712795   1.000000
    5        1.830648   1.000000
    6        2.243899   1.000000
    7        2.904700   1.000000
    8        3.671226   1.000000
    9        4.975737   1.000000
   10        5.710557   1.000000
   11        5.827131   1.000000
   12        6.833992   1.000000
   13        8.673800   1.000000
   14       11.723957   1.000000
   15       12.412130   1.000000
   16       16.631784   1.000000
   17       18.018759   0.000000
   18       18.287625   0.000000
   19       22.102926   0.000000
   20       25.145500   0.000000
   21       25.399609   0.000000
   22       27.571717   0.000000
 
  0.3750000E+00  0.1250000E+00  0.3750000E+00  0.3125000E-01
    1       -7.309635   1.000000
    2       -3.881601   1.000000
    3       -3.207883   1.000000
    4       -1.660096   1.000000
    5       -0.461012   1.000000
    6        1.237091   1.000000
    7        3.224780   1.000000
    8        4.571652   1.000000
    9        4.636060   1.000000
   10        5.277324   1.000000
   11        5.679593   1.000000
   12        5.980185   1.000000
   13       10.401627   1.000000
   14       12.958734   1.000000
   15       16.732731   1.000000
   16       18.030643   0.000000
   17       19.352037   0.000000
   18       19.658655   0.000000
   19       21.507826   0.000000
   20       25.819098   0.000000
   21       26.022083   0.000000
   22       26.420630   0.000000
 
 -0.3750000E+00  0.1250000E+00  0.3750000E+00  0.3125000E-01
    1       -6.260928   1.000000
    2       -5.004341   1.000000
    3       -3.937928   1.000000
    4       -1.888090   1.000000
    5       -0.344841   1.000000
    6        1.741675   1.000000
    7        3.207180   1.000000
    8        3.631716   1.000000
    9        4.075527   1.000000
   10        5.174475   1.000000
   11        7.169568   1.000000
   12        8.166309   1.000000
   13       11.386517   1.000000
   14       13.135561   1.000000
   15       14.294615   1.000000
   16       17.452806   0.001238
   17       18.165928   0.000000
   18       21.092180   0.000000
   19       21.782678   0.000000
   20       23.431332   0.000000
   21       24.485684   0.000000
   22       26.747824   0.000000
 
 -0.1250000E+00  0.1250000E+00  0.3750000E+00  0.3125000E-01
    1       -7.975059   1.000000
    2       -4.342559   1.000000
    3       -3.730209   1.000000
    4       -1.676497   1.000000
    5        2.273197   1.000000
    6        2.549187   1.000000
    7        3.043619   1.000000
    8        3.378131   1.000000
    9        6.201690   1.000000
   10        6.949325   1.000000
   11        6.995556   1.000000
   12        7.035856   1.000000
   13        8.362919   1.000000
   14       10.631457   1.000000
   15       14.127653   1.000000
   16       14.995311   1.000000
   17       17.421896   0.004812
   18       17.601164   0.000000
   19       21.040116   0.000000
   20       24.226667   0.000000
   21       25.594911   0.000000
   22       27.528880   0.000000
 
  0.1250000E+00  0.3750000E+00  0.3750000E+00  0.3125000E-01
    1       -7.022277   1.000000
    2       -6.632704   1.000000
    3       -3.311111   1.000000
    4        0.508274   1.000000
    5        1.974226   1.000000
    6        2.503490   1.000000
    7        3.124244   1.000000
    8        4.023513   1.000000
    9        4.751875   1.000000
   10        4.845181   1.000000
   11        6.641585   1.000000
   12        8.003163   1.000000
   13        8.391262   1.000000
   14       12.443172   1.000000
   15       13.234411   1.000000
   16       15.403176   1.000000
   17       17.765498   0.000000
   18       19.714659   0.000000
   19       21.215882   0.000000
   20       23.200866   0.000000
   21       24.311404   0.000000
   22       27.182210   0.000000
 
  0.3750000E+00  0.3750000E+00  0.3750000E+00  0.3125000E-01
    1       -5.976851   1.000000
    2       -5.859158   1.000000
    3       -2.153459   1.000000
    4       -1.394952   1.000000
    5       -0.976896   1.000000
    6       -0.576301   1.000000
    7        2.483089   1.000000
    8        2.647754   1.000000
    9        6.275228   1.000000
   10        6.766397   1.000000
   11        7.298722   1.000000
   12        7.952140   1.000000
   13       11.886251   1.000000
   14       12.912180   1.000000
   15       16.142577   1.000000
   16       17.230348   0.547692
   17       17.794444   0.000000
   18       18.145645   0.000000
   19       20.350949   0.000000
   20       24.357407   0.000000
   21       24.869177   0.000000
   22       25.223600   0.000000
 
 -0.3750000E+00  0.3750000E+00  0.3750000E+00  0.3125000E-01
    1       -5.080455   1.000000
    2       -4.434912   1.000000
    3       -4.294322   1.000000
    4       -3.644947   1.000000
    5       -1.790043   1.000000
    6        0.884854   1.000000
    7        2.147262   1.000000
    8        5.127534   1.000000
    9        5.584719   1.000000
   10        7.353094   1.000000
   11        8.232285   1.000000
   12        8.499066   1.000000
   13       11.869727   1.000000
   14       13.804229   1.000000
   15       14.240557   1.000000
   16       16.282898   1.000000
   17       16.734617   1.000000
   18       17.476256   0.000393
   19       22.469964   0.000000
   20       22.869861   0.000000
   21       23.168242   0.000000
   22       25.341660   0.000000
 
 -0.1250000E+00  0.3750000E+00  0.3750000E+00  0.3125000E-01
    1       -6.724352   1.000000
    2       -6.131841   1.000000
    3       -4.127029   1.000000
    4       -0.330874   1.000000
    5        0.261091   1.000000
    6        0.680499   1.000000
    7        5.394808   1.000000
    8        5.697517   1.000000
    9        6.149997   1.000000
   10        6.514223   1.000000
   11        7.577828   1.000000
   12        8.417967   1.000000
   13        8.711264   1.000000
   14        9.758309   1.000000
   15       12.511689   1.000000
   16       13.448237   1.000000
   17       19.266584   0.000000
   18       19.715610   0.000000
   19       20.811228   0.000000
   20       21.256809   0.000000
   21       24.784719   0.000000
   22       26.526631   0.000000
 
  0.1250000E+00 -0.3750000E+00  0.3750000E+00  0.3125000E-01
    1       -8.110368   1.000000
    2       -4.797997   1.000000
    3       -2.158539   1.000000
    4       -1.686498   1.000000
    5        1.730900   1.000000
    6        1.753267   1.000000
    7        3.491006   1.000000
    8        3.571609   1.000000
    9        4.007990   1.000000
   10        5.623672   1.000000
   11        5.745774   1.000000
   12        9.929381   1.000000
   13       11.318036   1.000000
   14       11.366569   1.000000
   15       13.187856   1.000000
   16       14.570465   1.000000
   17       17.237697   0.506344
   18       20.608366   0.000000
   19       20.880035   0.000000
   20       23.264330   0.000000
   21       23.613624   0.000000
   22       27.140337   0.000000
 
  0.3750000E+00 -0.3750000E+00  0.3750000E+00  0.3125000E-01
    1       -7.212417   1.000000
    2       -3.731643   1.000000
    3       -2.715514   1.000000
    4       -0.572496   1.000000
    5        0.034179   1.000000
    6        0.143641   1.000000
    7        0.463438   1.000000
    8        0.658543   1.000000
    9        4.328240   1.000000
   10        6.717936   1.000000
   11        8.354555   1.000000
   12        9.993722   1.000000
   13       12.725526   1.000000
   14       13.385965   1.000000
   15       16.818510   1.000000
   16       17.211718   0.649250
   17       18.100424   0.000000
   18       18.196043   0.000000
   19       21.155117   0.000000
   20       22.258611   0.000000
   21       23.117814   0.000000
   22       25.083772   0.000000
 
 -0.3750000E+00 -0.3750000E+00  0.3750000E+00  0.3125000E-01
    1       -5.860783   1.000000
    2       -5.164284   1.000000
    3       -3.000105   1.000000
    4       -1.564457   1.000000
    5       -1.379525   1.000000
    6       -1.250903   1.000000
    7        3.034343   1.000000
    8        3.390703   1.000000
    9        5.127303   1.000000
   10        5.494372   1.000000
   11        9.622776   1.000000
   12        9.651716   1.000000
   13       12.964172   1.000000
   14       13.657508   1.000000
   15       14.560772   1.000000
   16       15.712345   1.000000
   17       17.056572   0.995023
   18       19.432810   0.000000
   19       20.947858   0.000000
   20       22.860940   0.000000
   21       23.414180   0.000000
   22       24.799503   0.000000
 
 -0.1250000E+00 -0.3750000E+00  0.3750000E+00  0.3125000E-01
    1       -7.669064   1.000000
    2       -4.549086   1.000000
    3       -3.308314   1.000000
    4       -2.224619   1.000000
    5       -0.163258   1.000000
    6        1.905156   1.000000
    7        2.903731   1.000000
    8        6.129282   1.000000
    9        6.929828   1.000000
   10        7.300073   1.000000
   11        7.657171   1.000000
   12        8.026429   1.000000
   13        9.440667   1.000000
   14       11.166535   1.000000
   15       11.673454   1.000000
   16       12.323042   1.000000
   17       17.197783   0.719166
   18       21.937183   0.000000
   19       22.791795   0.000000
   20       23.210335   0.000000
   21       24.586240   0.000000
   22       24.757982   0.000000
 
  0.1250000E+00 -0.1250000E+00  0.3750000E+00  0.3125000E-01
    1       -8.681931   1.000000
    2       -3.106787   1.000000
    3       -1.732154   1.000000
    4       -1.349042   1.000000
    5       -0.459545   1.000000
    6        1.223220   1.000000
    7        3.495870   1.000000
    8        3.970299   1.000000
    9        5.187980   1.000000
   10        5.335124   1.000000
   11        6.481557   1.000000
   12        7.720486   1.000000
   13       10.372105   1.000000
   14       11.994922   1.000000
   15       12.034701   1.000000
   16       15.264257   1.000000
   17       17.311459   0.152149
   18       20.338772   0.000000
   19       21.886273   0.000000
   20       24.644297   0.000000
   21       25.641925   0.000000
   22       27.348376   0.000000
 
  0.3750000E+00 -0.1250000E+00  0.3750000E+00  0.3125000E-01
    1       -7.716677   1.000000
    2       -3.401766   1.000000
    3       -1.876371   1.000000
    4       -1.218161   1.000000
    5       -0.606522   1.000000
    6        1.315223   1.000000
    7        2.047070   1.000000
    8        2.374701   1.000000
    9        2.607270   1.000000
   10        4.192038   1.000000
   11        7.766776   1.000000
   12        8.940870   1.000000
   13       10.571814   1.000000
   14       13.538122   1.000000
   15       16.765718   1.000000
   16       18.478044   0.000000
   17       18.602944   0.000000
   18       21.753096   0.000000
   19       22.621504   0.000000
   20       23.243418   0.000000
   21       23.645150   0.000000
   22       26.250636   0.000000
 
 -0.3750000E+00 -0.1250000E+00  0.3750000E+00  0.3125000E-01
    1       -6.521738   1.000000
    2       -5.484988   1.000000
    3       -3.118292   1.000000
    4       -0.094511   1.000000
    5        0.625749   1.000000
    6        1.006740   1.000000
    7        1.602956   1.000000
    8        2.361931   1.000000
    9        2.606465   1.000000
   10        5.334177   1.000000
   11        7.495460   1.000000
   12        9.778978   1.000000
   13       11.869772   1.000000
   14       13.261309   1.000000
   15       14.138692   1.000000
   16       17.317131   0.134046
   17       20.006614   0.000000
   18       20.032717   0.000000
   19       23.497980   0.000000
   20       24.173983   0.000000
   21       24.178730   0.000000
   22       24.245307   0.000000
 
 -0.1250000E+00 -0.1250000E+00  0.3750000E+00  0.3125000E-01
    1       -8.289439   1.000000
    2       -3.724200   1.000000
    3       -2.509270   1.000000
    4       -1.498948   1.000000
    5       -0.595646   1.000000
    6        0.716373   1.000000
    7        4.408852   1.000000
    8        4.954823   1.000000
    9        6.285607   1.000000
   10        6.735767   1.000000
   11        7.536424   1.000000
   12        7.585172   1.000000
   13        8.521516   1.000000
   14        9.339805   1.000000
   15       13.817178   1.000000
   16       14.946973   1.000000
   17       16.806966   1.000000
   18       19.312859   0.000000
   19       21.835610   0.000000
   20       24.032411   0.000000
   21       27.751890   0.000000
   22       28.619418   0.000000
