 vasp.6.2.1 16May21 (build Oct 21 2023 21:03:18) complex                        
  
 executed on             LinuxIFC date 2024.05.29  15:03:30
 running on    2 total cores
 distrk:  each k-point on    2 cores,    1 groups
 distr:  one band on NCORE=   1 cores,    2 groups


--------------------------------------------------------------------------------------------------------


 INCAR:
   PREC = accurate
   ENCUT = 600
   EDIFF = 1e-06
   EDIFFG = 1e-05
   IBRION = 2
   ISIF = 2
   ISYM = 2
   ISMEAR = 0
   SIGMA = 0.1
   LREAL = False
   NPAR = 11
   NSW = 300
   ISTART = 0
   LCHARG = False
   LPLANE = False
   LWAVE = False

 POTCAR:    PAW_PBE C 08Apr2002                   
 -----------------------------------------------------------------------------
|                                                                             |
|           W    W    AA    RRRRR   N    N  II  N    N   GGGG   !!!           |
|           W    W   A  A   R    R  NN   N  II  NN   N  G    G  !!!           |
|           W    W  A    A  R    R  N N  N  II  N N  N  G       !!!           |
|           W WW W  AAAAAA  RRRRR   N  N N  II  N  N N  G  GGG   !            |
|           WW  WW  A    A  R   R   N   NN  II  N   NN  G    G                |
|           W    W  A    A  R    R  N    N  II  N    N   GGGG   !!!           |
|                                                                             |
|     The value NPAR = 11 specified in the INCAR file was overwritten,        |
|     because it was not compatible with the 2 processes available:           |
|     NPAR = 2                                                                |
|     was used instead, please check that this makes sense for your           |
|     machine.                                                                |
|                                                                             |
 -----------------------------------------------------------------------------

 POTCAR:    PAW_PBE C 08Apr2002                   
   SHA256 =  253f7b50bb8d59471dbedb8285d89021f4a42ed1a2c5d38a03a736e69125dd95 C/POTCAR              
   COPYR  = (c) Copyright 08Apr2002 Georg Kresse                                                    
   COPYR  = This file is part of the software VASP. Any use, copying, and all other rights are regul
   COPYR  = If you do not have a valid VASP license, you may not use, copy or distribute this file. 
   VRHFIN =C: s2p2                                                                                  
   LEXCH  = PE                                                                                      
   EATOM  =   147.1560 eV,   10.8157 Ry                                                             
                                                                                                    
   TITEL  = PAW_PBE C 08Apr2002                                                                     
   LULTRA =        F    use ultrasoft PP ?                                                          
   IUNSCR =        1    unscreen: 0-lin 1-nonlin 2-no                                               
   RPACOR =    1.200    partial core radius                                                         
   POMASS =   12.011; ZVAL   =    4.000    mass and valenz                                          
   RCORE  =    1.500    outmost cutoff radius                                                       
   RWIGS  =    1.630; RWIGS  =    0.863    wigner-seitz radius (au A)                               
   ENMAX  =  400.000; ENMIN  =  300.000 eV                                                          
   ICORE  =        2    local potential                                                             
   LCOR   =        T    correct aug charges                                                         
   LPAW   =        T    paw PP                                                                      
   EAUG   =  644.873                                                                                
   DEXC   =    0.000                                                                                
   RMAX   =    1.529    core radius for proj-oper                                                   
   RAUG   =    1.300    factor for augmentation sphere                                              
   RDEP   =    1.501    radius for radial grids                                                     
   RDEPT  =    1.300    core radius for aug-charge                                                  
                                                                                                    
   Atomic configuration                                                                             
    4 entries                                                                                       
     n  l   j            E        occ.                                                              
     1  0  0.50      -273.3789   2.0000                                                             
     2  0  0.50       -13.7508   2.0000                                                             
     2  1  0.50        -5.2854   2.0000                                                             
     3  2  1.50        -5.4423   0.0000                                                             
   Description                                                                                      
     l       E           TYP  RCUT    TYP  RCUT                                                     
     0    -13.7508458     23  1.200                                                                 
     0     -8.2022199     23  1.200                                                                 
     1     -5.2854383     23  1.500                                                                 
     1     34.0145650     23  1.500                                                                 
     2     -5.4423304      7  1.500                                                                 
  local pseudopotential read in
  partial core-charges read in
  partial kinetic energy density read in
  atomic valenz-charges read in
  non local Contribution for L=           0  read in
    real space projection operators read in
  non local Contribution for L=           0  read in
    real space projection operators read in
  non local Contribution for L=           1  read in
    real space projection operators read in
  non local Contribution for L=           1  read in
    real space projection operators read in
    PAW grid and wavefunctions read in
 
   number of l-projection  operators is LMAX  =           4
   number of lm-projection operators is LMMAX =           8
 
  PAW_PBE C 08Apr2002                   :
 energy of atom  1       EATOM= -147.1560
 kinetic energy error for atom=    0.0057 (will be added to EATOM!!)
 
 
 POSCAR:  C
  positions in direct lattice
  No initial velocities read in
 exchange correlation table for  LEXCH =        8
   RHO(1)=    0.500       N(1)  =     2000
   RHO(2)=  100.500       N(2)  =     4000
 


--------------------------------------------------------------------------------------------------------


 ion  position               nearest neighbor table
   1  0.125  0.125  0.625-   4 1.35   2 1.38   8 1.42   6 1.57   5 1.94   5 1.94
   2  0.375  0.375  0.875-   3 1.35   1 1.38   7 1.42   5 1.57   6 1.94   6 1.94
   3  0.125  0.625  0.125-   2 1.35   4 1.38   6 1.42   8 1.57   7 1.94   7 1.94
   4  0.375  0.875  0.375-   1 1.35   3 1.38   5 1.42   7 1.57   8 1.94   8 1.94
   5  0.625  0.125  0.125-   8 1.35   6 1.38   4 1.42   2 1.57   1 1.94   1 1.94
   6  0.875  0.375  0.375-   7 1.35   5 1.38   3 1.42   1 1.57   2 1.94   2 1.94
   7  0.625  0.625  0.625-   6 1.35   8 1.38   2 1.42   4 1.57   3 1.94   3 1.94
   8  0.875  0.875  0.875-   5 1.35   7 1.38   1 1.42   3 1.57   4 1.94   4 1.94
 
  LATTYP: Found a triclinic cell.
 ALAT       =     2.5481084915
 B/A-ratio  =     1.7112268320
 C/A-ratio  =     1.2891769452
 COS(alpha) =     0.0283834367
 COS(beta)  =     0.1339389243
 COS(gamma) =     0.4461224076
  
  Lattice vectors:
  
 A1 = (   1.1983928751,  -0.8746629244,   2.0716361094)
 A2 = (  -2.4674145194,  -2.0458571349,   2.9562390406)
 A3 = (   0.8473917285,  -2.9418104917,  -1.1910744597)


Analysis of symmetry for initial positions (statically):
=====================================================================
 Subroutine PRICEL returns following result:
 
  LATTYP: Found a triclinic cell.
 ALAT       =     3.9044380471
 B/A-ratio  =     1.0228985607
 C/A-ratio  =     1.0123978511
 COS(alpha) =     0.0061994552
 COS(beta)  =     0.6010632703
 COS(gamma) =     0.7920680626
  
  Lattice vectors:
  
 A1 = (   1.5847084063,   3.0900761348,   1.7845910488)
 A2 = (   0.3863155312,   3.9647390592,  -0.2870450606)
 A3 = (   1.3738934484,   0.1589108593,   3.7029913940)
 
   4 primitive cells build up your supercell.
 

 Routine SETGRP: Setting up the symmetry group for a 
 triclinic supercell.


 Subroutine GETGRP returns: Found  2 space group operations
 (whereof  1 operations were pure point group operations)
 out of a pool of  2 trial point group operations.


The static configuration has the point symmetry C_1 .
 The point group associated with its full space group is S_2 .


Analysis of symmetry for dynamics (positions and initial velocities):
=====================================================================
 Subroutine PRICEL returns following result:
 
  LATTYP: Found a triclinic cell.
 ALAT       =     3.9044380471
 B/A-ratio  =     1.0228985607
 C/A-ratio  =     1.0123978511
 COS(alpha) =     0.0061994552
 COS(beta)  =     0.6010632703
 COS(gamma) =     0.7920680626
  
  Lattice vectors:
  
 A1 = (   1.5847084063,   3.0900761348,   1.7845910488)
 A2 = (   0.3863155312,   3.9647390592,  -0.2870450606)
 A3 = (   1.3738934484,   0.1589108593,   3.7029913940)
 
   4 primitive cells build up your supercell.
 

 Routine SETGRP: Setting up the symmetry group for a 
 triclinic supercell.


 Subroutine GETGRP returns: Found  2 space group operations
 (whereof  1 operations were pure point group operations)
 out of a pool of  2 trial point group operations.


The dynamic configuration has the point symmetry C_1 .
 The point group associated with its full space group is S_2 .


Analysis of constrained symmetry for selective dynamics:
=====================================================================
 Subroutine PRICEL returns following result:
 
  LATTYP: Found a triclinic cell.
 ALAT       =     3.9044380471
 B/A-ratio  =     1.0228985607
 C/A-ratio  =     1.0123978511
 COS(alpha) =     0.0061994552
 COS(beta)  =     0.6010632703
 COS(gamma) =     0.7920680626
  
  Lattice vectors:
  
 A1 = (   1.5847084063,   3.0900761348,   1.7845910488)
 A2 = (   0.3863155312,   3.9647390592,  -0.2870450606)
 A3 = (   1.3738934484,   0.1589108593,   3.7029913940)
 
   4 primitive cells build up your supercell.
 

 Routine SETGRP: Setting up the symmetry group for a 
 triclinic supercell.


 Subroutine GETGRP returns: Found  2 space group operations
 (whereof  1 operations were pure point group operations)
 out of a pool of  2 trial point group operations.


The constrained configuration has the point symmetry C_1 .
 The point group associated with its full space group is S_2 .


 Subroutine INISYM returns: Found  2 space group operations
 (whereof  1 operations are pure point group operations),
 and found     4 'primitive' translations


----------------------------------------------------------------------------------------

                                     Primitive cell                                     

  volume of cell :       8.0876

  direct lattice vectors                    reciprocal lattice vectors
     1.584708406  3.090076135  1.784591049     1.820933142 -0.225640321 -0.665924155
     0.386315531  3.964739059 -0.287045061    -1.379755610  0.422414141  0.493792938
     1.373893448  0.158910859  3.702991394    -0.984521062  0.141487661  0.629259661

  length of vectors
     3.904438047  3.993844059  3.952844689     1.951964662  1.525119902  1.176974172

  position of ions in fractional coordinates (direct lattice)
     0.875000000  0.375000000  0.750000000
     0.625000000  0.125000000  0.250000000

  ion indices of the primitive-cell ions
   primitive index   ion index
                 1           1
                 2           2

----------------------------------------------------------------------------------------

 
 
 KPOINTS: KPOINTS created by Atomic Simulation Env

Automatic generation of k-mesh.
 Grid dimensions read from file:
 generate k-points for:    4    4    4

 Generating k-lattice:

  Cartesian coordinates                     Fractional coordinates (reciprocal lattice)
    -0.012770750  0.066879413  0.035624653     0.250000000  0.000000000  0.000000000
     0.055147192  0.024596728 -0.021516402    -0.000000000  0.250000000  0.000000000
    -0.030890696  0.027948935 -0.091007736     0.000000000 -0.000000000  0.250000000

  Length of vectors
     0.076844413  0.064102787  0.100088891

  Shift w.r.t. Gamma in fractional coordinates (k-lattice)
     0.500000000  0.500000000  0.500000000

 
 Subroutine IBZKPT returns following result:
 ===========================================
 
 Found     32 irreducible k-points:
 
 Following reciprocal coordinates:
            Coordinates               Weight
  0.125000  0.125000  0.125000      2.000000
  0.375000  0.125000  0.125000      2.000000
 -0.375000  0.125000  0.125000      2.000000
 -0.125000  0.125000  0.125000      2.000000
  0.125000  0.375000  0.125000      2.000000
  0.375000  0.375000  0.125000      2.000000
 -0.375000  0.375000  0.125000      2.000000
 -0.125000  0.375000  0.125000      2.000000
  0.125000 -0.375000  0.125000      2.000000
  0.375000 -0.375000  0.125000      2.000000
 -0.375000 -0.375000  0.125000      2.000000
 -0.125000 -0.375000  0.125000      2.000000
  0.125000 -0.125000  0.125000      2.000000
  0.375000 -0.125000  0.125000      2.000000
 -0.375000 -0.125000  0.125000      2.000000
 -0.125000 -0.125000  0.125000      2.000000
  0.125000  0.125000  0.375000      2.000000
  0.375000  0.125000  0.375000      2.000000
 -0.375000  0.125000  0.375000      2.000000
 -0.125000  0.125000  0.375000      2.000000
  0.125000  0.375000  0.375000      2.000000
  0.375000  0.375000  0.375000      2.000000
 -0.375000  0.375000  0.375000      2.000000
 -0.125000  0.375000  0.375000      2.000000
  0.125000 -0.375000  0.375000      2.000000
  0.375000 -0.375000  0.375000      2.000000
 -0.375000 -0.375000  0.375000      2.000000
 -0.125000 -0.375000  0.375000      2.000000
  0.125000 -0.125000  0.375000      2.000000
  0.375000 -0.125000  0.375000      2.000000
 -0.375000 -0.125000  0.375000      2.000000
 -0.125000 -0.125000  0.375000      2.000000
 
 Following cartesian coordinates:
            Coordinates               Weight
  0.005743  0.059713 -0.038450      2.000000
 -0.007028  0.126592 -0.002825      2.000000
  0.031284 -0.074046 -0.109699      2.000000
  0.018514 -0.007167 -0.074074      2.000000
  0.060890  0.084309 -0.059966      2.000000
  0.048119  0.151189 -0.024341      2.000000
  0.086432 -0.049450 -0.131215      2.000000
  0.073661  0.017430 -0.095591      2.000000
 -0.104552  0.010519  0.004583      2.000000
 -0.117322  0.077398  0.040208      2.000000
 -0.079010 -0.123240 -0.066666      2.000000
 -0.091781 -0.056360 -0.031042      2.000000
 -0.049404  0.035116 -0.016933      2.000000
 -0.062175  0.101995  0.018691      2.000000
 -0.023863 -0.098643 -0.088183      2.000000
 -0.036634 -0.031764 -0.052558      2.000000
 -0.025148  0.087661 -0.129457      2.000000
 -0.037919  0.154541 -0.093833      2.000000
  0.000394 -0.046097 -0.200707      2.000000
 -0.012377  0.020782 -0.165082      2.000000
  0.029999  0.112258 -0.150974      2.000000
  0.017229  0.179138 -0.115349      2.000000
  0.055541 -0.021501 -0.222223      2.000000
  0.042770  0.045379 -0.186599      2.000000
 -0.135442  0.038468 -0.086425      2.000000
 -0.148213  0.105347 -0.050800      2.000000
 -0.109901 -0.095291 -0.157674      2.000000
 -0.122671 -0.028411 -0.122049      2.000000
 -0.080295  0.063065 -0.107941      2.000000
 -0.093066  0.129944 -0.072316      2.000000
 -0.054754 -0.070694 -0.179190      2.000000
 -0.067524 -0.003815 -0.143566      2.000000
 


--------------------------------------------------------------------------------------------------------




 Dimension of arrays:
   k-points           NKPTS =     32   k-points in BZ     NKDIM =     32   number of bands    NBANDS=     22
   number of dos      NEDOS =    301   number of ions     NIONS =      8
   non local maximal  LDIM  =      4   non local SUM 2l+1 LMDIM =      8
   total plane-waves  NPLWV =  17920
   max r-space proj   IRMAX =      1   max aug-charges    IRDMAX=   6736
   dimension x,y,z NGX =    28 NGY =   32 NGZ =   20
   dimension x,y,z NGXF=    56 NGYF=   64 NGZF=   40
   support grid    NGXF=    56 NGYF=   64 NGZF=   40
   ions per type =               8
   NGX,Y,Z   is equivalent  to a cutoff of  14.17, 13.47, 13.05 a.u.
   NGXF,Y,Z  is equivalent  to a cutoff of  28.34, 26.94, 26.10 a.u.

 SYSTEM =  unknown system                          
 POSCAR =   C                                      

 Startparameter for this run:
   NWRITE =      2    write-flag & timer
   PREC   = accura    normal or accurate (medium, high low for compatibility)
   ISTART =      0    job   : 0-new  1-cont  2-samecut
   ICHARG =      2    charge: 1-file 2-atom 10-const
   ISPIN  =      1    spin polarized calculation?
   LNONCOLLINEAR =      F non collinear calculations
   LSORBIT =      F    spin-orbit coupling
   INIWAV =      1    electr: 0-lowe 1-rand  2-diag
   LASPH  =      F    aspherical Exc in radial PAW
 Electronic Relaxation 1
   ENCUT  =  600.0 eV  44.10 Ry    6.64 a.u.   6.56  7.89  5.09*2*pi/ulx,y,z
   ENINI  =  600.0     initial cutoff
   ENAUG  =  644.9 eV  augmentation charge cutoff
   NELM   =     60;   NELMIN=  2; NELMDL= -5     # of ELM steps 
   EDIFF  = 0.1E-05   stopping-criterion for ELM
   LREAL  =      F    real-space projection
   NLSPLINE    = F    spline interpolate recip. space projectors
   LCOMPAT=      F    compatible to vasp.4.4
   GGA_COMPAT  = T    GGA compatible to vasp.4.4-vasp.4.6
   LMAXPAW     = -100 max onsite density
   LMAXMIX     =    2 max onsite mixed and CHGCAR
   VOSKOWN=      0    Vosko Wilk Nusair interpolation
   ROPT   =    0.00000
 Ionic relaxation
   EDIFFG = 0.1E-04   stopping-criterion for IOM
   NSW    =    300    number of steps for IOM
   NBLOCK =      1;   KBLOCK =    300    inner block; outer block 
   IBRION =      2    ionic relax: 0-MD 1-quasi-New 2-CG
   NFREE  =      1    steps in history (QN), initial steepest desc. (CG)
   ISIF   =      2    stress and relaxation
   IWAVPR =     11    prediction:  0-non 1-charg 2-wave 3-comb
   ISYM   =      2    0-nonsym 1-usesym 2-fastsym
   LCORR  =      T    Harris-Foulkes like correction to forces

   POTIM  = 0.5000    time-step for ionic-motion
   TEIN   =    0.0    initial temperature
   TEBEG  =    0.0;   TEEND  =   0.0 temperature during run
   SMASS  =  -3.00    Nose mass-parameter (am)
   estimated Nose-frequenzy (Omega)   =  0.10E-29 period in steps = 0.13E+47 mass=  -0.247E-27a.u.
   SCALEE = 1.0000    scale energy and forces
   NPACO  =    256;   APACO  = 16.0  distance and # of slots for P.C.
   PSTRESS=    0.0 pullay stress

  Mass of Ions in am
   POMASS =  12.01
  Ionic Valenz
   ZVAL   =   4.00
  Atomic Wigner-Seitz radii
   RWIGS  =  -1.00
  virtual crystal weights 
   VCA    =   1.00
   NELECT =      32.0000    total number of electrons
   NUPDOWN=      -1.0000    fix difference up-down

 DOS related values:
   EMIN   =  10.00;   EMAX   =-10.00  energy-range for DOS
   EFERMI =   0.00
   ISMEAR =     0;   SIGMA  =   0.10  broadening in eV -4-tet -1-fermi 0-gaus

 Electronic relaxation 2 (details)
   IALGO  =     38    algorithm
   LDIAG  =      T    sub-space diagonalisation (order eigenvalues)
   LSUBROT=      F    optimize rotation matrix (better conditioning)
   TURBO    =      0    0=normal 1=particle mesh
   IRESTART =      0    0=no restart 2=restart with 2 vectors
   NREBOOT  =      0    no. of reboots
   NMIN     =      0    reboot dimension
   EREF     =   0.00    reference energy to select bands
   IMIX   =      4    mixing-type and parameters
     AMIX     =   0.40;   BMIX     =  1.00
     AMIX_MAG =   1.60;   BMIX_MAG =  1.00
     AMIN     =   0.10
     WC   =   100.;   INIMIX=   1;  MIXPRE=   1;  MAXMIX= -45

 Intra band minimization:
   WEIMIN = 0.0010     energy-eigenvalue tresh-hold
   EBREAK =  0.11E-07  absolut break condition
   DEPER  =   0.30     relativ break condition  

   TIME   =   0.40     timestep for ELM

  volume/ion in A,a.u.               =       4.04        27.29
  Fermi-wavevector in a.u.,A,eV,Ry     =   1.631165  3.082455 36.201024  2.660700
  Thomas-Fermi vector in A             =   2.723346
 
 Write flags
   LWAVE        =      F    write WAVECAR
   LDOWNSAMPLE  =      F    k-point downsampling of WAVECAR
   LCHARG       =      F    write CHGCAR
   LVTOT        =      F    write LOCPOT, total local potential
   LVHAR        =      F    write LOCPOT, Hartree potential only
   LELF         =      F    write electronic localiz. function (ELF)
   LORBIT       =      0    0 simple, 1 ext, 2 COOP (PROOUT), +10 PAW based schemes


 Dipole corrections
   LMONO  =      F    monopole corrections only (constant potential shift)
   LDIPOL =      F    correct potential (dipole corrections)
   IDIPOL =      0    1-x, 2-y, 3-z, 4-all directions 
   EPSILON=  1.0000000 bulk dielectric constant

 Exchange correlation treatment:
   GGA     =    --    GGA type
   LEXCH   =     8    internal setting for exchange type
   VOSKOWN=      0    Vosko Wilk Nusair interpolation
   LHFCALC =     F    Hartree Fock is set to
   LHFONE  =     F    Hartree Fock one center treatment
   AEXX    =    0.0000 exact exchange contribution

 Linear response parameters
   LEPSILON=     F    determine dielectric tensor
   LRPA    =     F    only Hartree local field effects (RPA)
   LNABLA  =     F    use nabla operator in PAW spheres
   LVEL    =     F    velocity operator in full k-point grid
   LINTERFAST=   F  fast interpolation
   KINTER  =     0    interpolate to denser k-point grid
   CSHIFT  =0.1000    complex shift for real part using Kramers Kronig
   OMEGAMAX=  -1.0    maximum frequency
   DEG_THRESHOLD= 0.2000000E-02 threshold for treating states as degnerate
   RTIME   =   -0.100 relaxation time in fs
  (WPLASMAI=    0.000 imaginary part of plasma frequency in eV, 0.658/RTIME)
   DFIELD  = 0.0000000 0.0000000 0.0000000 field for delta impulse in time
 
 Orbital magnetization related:
   ORBITALMAG=     F  switch on orbital magnetization
   LCHIMAG   =     F  perturbation theory with respect to B field
   DQ        =  0.001000  dq finite difference perturbation B field
   LLRAUG    =     F  two centre corrections for induced B field



--------------------------------------------------------------------------------------------------------


 conjugate gradient relaxation of ions
   using selective dynamics as specified on POSCAR
 charge density and potential will be updated during run
 non-spin polarized calculation
 Variant of blocked Davidson
 Davidson routine will perform the subspace rotation
 perform sub-space diagonalisation
    after iterative eigenvector-optimisation
 modified Broyden-mixing scheme, WC =      100.0
 initial mixing is a Kerker type mixing with AMIX =  0.4000 and BMIX =      1.0000
 Hartree-type preconditioning will be used
 using additional bands            6
 reciprocal scheme for non local part
 use partial core corrections
 calculate Harris-corrections to forces 
   (improved forces if not selfconsistent)
 use gradient corrections 
 use of overlap-Matrix (Vanderbilt PP)
 Gauss-broadening in eV      SIGMA  =   0.10


--------------------------------------------------------------------------------------------------------


  energy-cutoff  :      600.00
  volume of cell :       32.35
      direct lattice vectors                 reciprocal lattice vectors
    -0.847391729  2.941810492  1.191074460    -0.051082998  0.267517651  0.142498613
     3.665807395  1.171194211 -0.884602931     0.220588766  0.098386910 -0.086065609
    -1.198392875  0.874662924 -2.071636109    -0.123562783  0.111795740 -0.364030946

  length of vectors
     3.284962721  3.948716510  2.548108491     0.307377652  0.256411148  0.400355565


 
 k-points in units of 2pi/SCALE and weight: KPOINTS created by Atomic Simulation Env
   0.00574287  0.05971254 -0.03844974       0.031
  -0.00702788  0.12659195 -0.00282509       0.031
   0.03128437 -0.07404629 -0.10969905       0.031
   0.01851362 -0.00716688 -0.07407440       0.031
   0.06089006  0.08430927 -0.05996614       0.031
   0.04811932  0.15118868 -0.02434149       0.031
   0.08643156 -0.04944956 -0.13121545       0.031
   0.07366081  0.01742985 -0.09559080       0.031
  -0.10455151  0.01051908  0.00458306       0.031
  -0.11732226  0.07739850  0.04020771       0.031
  -0.07901001 -0.12323974 -0.06666624       0.031
  -0.09178076 -0.05636033 -0.03104159       0.031
  -0.04940432  0.03511581 -0.01693334       0.031
  -0.06217507  0.10199522  0.01869131       0.031
  -0.02386282 -0.09864302 -0.08818265       0.031
  -0.03663357 -0.03176360 -0.05255799       0.031
  -0.02514782  0.08766147 -0.12945748       0.031
  -0.03791857  0.15454089 -0.09383283       0.031
   0.00039368 -0.04609735 -0.20070679       0.031
  -0.01237707  0.02078206 -0.16508213       0.031
   0.02999937  0.11225820 -0.15097388       0.031
   0.01722862  0.17913761 -0.11534923       0.031
   0.05554087 -0.02150063 -0.22222319       0.031
   0.04277012  0.04537879 -0.18659853       0.031
  -0.13544221  0.03846802 -0.08642467       0.031
  -0.14821296  0.10534743 -0.05080002       0.031
  -0.10990071 -0.09529081 -0.15767398       0.031
  -0.12267146 -0.02841140 -0.12204933       0.031
  -0.08029501  0.06306475 -0.10794108       0.031
  -0.09306576  0.12994416 -0.07231642       0.031
  -0.05475352 -0.07069408 -0.17919038       0.031
  -0.06752426 -0.00381467 -0.14356573       0.031
 
 k-points in reciprocal lattice and weights: KPOINTS created by Atomic Simulation Env
   0.12500000  0.12500000  0.12500000       0.031
   0.37500000  0.12500000  0.12500000       0.031
  -0.37500000  0.12500000  0.12500000       0.031
  -0.12500000  0.12500000  0.12500000       0.031
   0.12500000  0.37500000  0.12500000       0.031
   0.37500000  0.37500000  0.12500000       0.031
  -0.37500000  0.37500000  0.12500000       0.031
  -0.12500000  0.37500000  0.12500000       0.031
   0.12500000 -0.37500000  0.12500000       0.031
   0.37500000 -0.37500000  0.12500000       0.031
  -0.37500000 -0.37500000  0.12500000       0.031
  -0.12500000 -0.37500000  0.12500000       0.031
   0.12500000 -0.12500000  0.12500000       0.031
   0.37500000 -0.12500000  0.12500000       0.031
  -0.37500000 -0.12500000  0.12500000       0.031
  -0.12500000 -0.12500000  0.12500000       0.031
   0.12500000  0.12500000  0.37500000       0.031
   0.37500000  0.12500000  0.37500000       0.031
  -0.37500000  0.12500000  0.37500000       0.031
  -0.12500000  0.12500000  0.37500000       0.031
   0.12500000  0.37500000  0.37500000       0.031
   0.37500000  0.37500000  0.37500000       0.031
  -0.37500000  0.37500000  0.37500000       0.031
  -0.12500000  0.37500000  0.37500000       0.031
   0.12500000 -0.37500000  0.37500000       0.031
   0.37500000 -0.37500000  0.37500000       0.031
  -0.37500000 -0.37500000  0.37500000       0.031
  -0.12500000 -0.37500000  0.37500000       0.031
   0.12500000 -0.12500000  0.37500000       0.031
   0.37500000 -0.12500000  0.37500000       0.031
  -0.37500000 -0.12500000  0.37500000       0.031
  -0.12500000 -0.12500000  0.37500000       0.031
 
 position of ions in fractional coordinates (direct lattice) 
   0.12500000  0.12500000  0.62500000
   0.37500000  0.37500000  0.87500000
   0.12500000  0.62500000  0.12500000
   0.37500000  0.87500000  0.37500000
   0.62500000  0.12500000  0.12500000
   0.87500000  0.37500000  0.37500000
   0.62500000  0.62500000  0.62500000
   0.87500000  0.87500000  0.87500000
 
 position of ions in cartesian coordinates  (Angst):
  -0.39669359  1.06078992 -1.25646363
   0.00831211  2.30770682 -1.69775477
   2.03540655  1.20905556 -0.66294704
   2.44041224  2.45597247 -1.10423818
  -0.22119302  2.09436370  0.37489166
   0.18381268  3.34128061 -0.06639949
   1.01251424  3.11729227 -1.10322786
   1.41751994  4.36420917 -1.54451901
 


--------------------------------------------------------------------------------------------------------


 k-point   1 :   0.1250 0.1250 0.1250  plane waves:    1082
 k-point   2 :   0.3750 0.1250 0.1250  plane waves:    1074
 k-point   3 :  -0.3750 0.1250 0.1250  plane waves:    1070
 k-point   4 :  -0.1250 0.1250 0.1250  plane waves:    1070
 k-point   5 :   0.1250 0.3750 0.1250  plane waves:    1083
 k-point   6 :   0.3750 0.3750 0.1250  plane waves:    1070
 k-point   7 :  -0.3750 0.3750 0.1250  plane waves:    1075
 k-point   8 :  -0.1250 0.3750 0.1250  plane waves:    1081
 k-point   9 :   0.1250-0.3750 0.1250  plane waves:    1068
 k-point  10 :   0.3750-0.3750 0.1250  plane waves:    1078
 k-point  11 :  -0.3750-0.3750 0.1250  plane waves:    1074
 k-point  12 :  -0.1250-0.3750 0.1250  plane waves:    1080
 k-point  13 :   0.1250-0.1250 0.1250  plane waves:    1073
 k-point  14 :   0.3750-0.1250 0.1250  plane waves:    1079
 k-point  15 :  -0.3750-0.1250 0.1250  plane waves:    1077
 k-point  16 :  -0.1250-0.1250 0.1250  plane waves:    1074
 k-point  17 :   0.1250 0.1250 0.3750  plane waves:    1088
 k-point  18 :   0.3750 0.1250 0.3750  plane waves:    1080
 k-point  19 :  -0.3750 0.1250 0.3750  plane waves:    1081
 k-point  20 :  -0.1250 0.1250 0.3750  plane waves:    1083
 k-point  21 :   0.1250 0.3750 0.3750  plane waves:    1086
 k-point  22 :   0.3750 0.3750 0.3750  plane waves:    1077
 k-point  23 :  -0.3750 0.3750 0.3750  plane waves:    1074
 k-point  24 :  -0.1250 0.3750 0.3750  plane waves:    1078
 k-point  25 :   0.1250-0.3750 0.3750  plane waves:    1086
 k-point  26 :   0.3750-0.3750 0.3750  plane waves:    1087
 k-point  27 :  -0.3750-0.3750 0.3750  plane waves:    1086
 k-point  28 :  -0.1250-0.3750 0.3750  plane waves:    1090
 k-point  29 :   0.1250-0.1250 0.3750  plane waves:    1078
 k-point  30 :   0.3750-0.1250 0.3750  plane waves:    1077
 k-point  31 :  -0.3750-0.1250 0.3750  plane waves:    1082
 k-point  32 :  -0.1250-0.1250 0.3750  plane waves:    1084

 maximum and minimum number of plane-waves per node :      1090     1068

 maximum number of plane-waves:      1090
 maximum index in each direction: 
   IXMAX=    6   IYMAX=    8   IZMAX=    4
   IXMIN=   -6   IYMIN=   -8   IZMIN=   -5


 serial   3D FFT for wavefunctions

 total amount of memory used by VASP MPI-rank0    45783. kBytes
=======================================================================

   base      :      30000. kBytes
   nonl-proj :       2371. kBytes
   fftplans  :       2603. kBytes
   grid      :       4286. kBytes
   one-center:         24. kBytes
   wavefun   :       6499. kBytes
 
     INWAV:  cpu time    0.0000: real time    0.0000
 Broyden mixing: mesh for mixing (old mesh)
   NGX = 13   NGY = 15   NGZ = 11
  (NGX  = 56   NGY  = 64   NGZ  = 40)
  gives a total of   2145 points

 initial charge density was supplied:
 charge density of overlapping atoms calculated
 number of electron      32.0000000 magnetization 
 keeping initial charge density in first step


--------------------------------------------------------------------------------------------------------


 Maximum index for augmentation-charges         3190 (set IRDMAX)


--------------------------------------------------------------------------------------------------------


 First call to EWALD:  gamma=   0.556
 Maximum number of real-space cells 3x 2x 3
 Maximum number of reciprocal cells 3x 3x 2

    FEWALD:  cpu time    0.0005: real time    0.0005


--------------------------------------- Iteration      1(   1)  ---------------------------------------


    POTLOK:  cpu time    0.0153: real time    0.0153
    SETDIJ:  cpu time    0.0021: real time    0.0021
     EDDAV:  cpu time    0.3728: real time    0.3728
       DOS:  cpu time    0.0005: real time    0.0005
    --------------------------------------------
      LOOP:  cpu time    0.3906: real time    0.3906

 eigenvalue-minimisations  :  1408
 total energy-change (2. order) : 0.1196063E+03  (-0.2006097E+04)
 number of electron      32.0000000 magnetization 
 augmentation part       32.0000000 magnetization 

 Free energy of the ion-electron system (eV)
  ---------------------------------------------------
  alpha Z        PSCENC =       162.51357025
  Ewald energy   TEWEN  =     -1579.37806372
  -Hartree energ DENC   =       -38.97680006
  -exchange      EXHF   =         0.00000000
  -V(xc)+E(xc)   XCENC  =       118.67677442
  PAW double counting   =       868.17637104     -872.73161751
  entropy T*S    EENTRO =        -0.00443209
  eigenvalues    EBANDS =       284.12821919
  atomic energy  EATOM  =      1177.20230207
  Solvation  Ediel_sol  =         0.00000000
  ---------------------------------------------------
  free energy    TOTEN  =       119.60632359 eV

  energy without entropy =      119.61075568  energy(sigma->0) =      119.60853964


--------------------------------------------------------------------------------------------------------




--------------------------------------- Iteration      1(   2)  ---------------------------------------


     EDDAV:  cpu time    0.4569: real time    0.4611
       DOS:  cpu time    0.0004: real time    0.0004
    --------------------------------------------
      LOOP:  cpu time    0.4573: real time    0.4615

 eigenvalue-minimisations  :  1848
 total energy-change (2. order) :-0.1668005E+03  (-0.1553157E+03)
 number of electron      32.0000000 magnetization 
 augmentation part       32.0000000 magnetization 

 Free energy of the ion-electron system (eV)
  ---------------------------------------------------
  alpha Z        PSCENC =       162.51357025
  Ewald energy   TEWEN  =     -1579.37806372
  -Hartree energ DENC   =       -38.97680006
  -exchange      EXHF   =         0.00000000
  -V(xc)+E(xc)   XCENC  =       118.67677442
  PAW double counting   =       868.17637104     -872.73161751
  entropy T*S    EENTRO =        -0.00621601
  eigenvalues    EBANDS =       117.32951229
  atomic energy  EATOM  =      1177.20230207
  Solvation  Ediel_sol  =         0.00000000
  ---------------------------------------------------
  free energy    TOTEN  =       -47.19416723 eV

  energy without entropy =      -47.18795122  energy(sigma->0) =      -47.19105922


--------------------------------------------------------------------------------------------------------




--------------------------------------- Iteration      1(   3)  ---------------------------------------


     EDDAV:  cpu time    0.3766: real time    0.3767
       DOS:  cpu time    0.0004: real time    0.0004
    --------------------------------------------
      LOOP:  cpu time    0.3771: real time    0.3771

 eigenvalue-minimisations  :  1818
 total energy-change (2. order) :-0.5911815E+01  (-0.5803115E+01)
 number of electron      32.0000000 magnetization 
 augmentation part       32.0000000 magnetization 

 Free energy of the ion-electron system (eV)
  ---------------------------------------------------
  alpha Z        PSCENC =       162.51357025
  Ewald energy   TEWEN  =     -1579.37806372
  -Hartree energ DENC   =       -38.97680006
  -exchange      EXHF   =         0.00000000
  -V(xc)+E(xc)   XCENC  =       118.67677442
  PAW double counting   =       868.17637104     -872.73161751
  entropy T*S    EENTRO =        -0.00655343
  eigenvalues    EBANDS =       111.41803425
  atomic energy  EATOM  =      1177.20230207
  Solvation  Ediel_sol  =         0.00000000
  ---------------------------------------------------
  free energy    TOTEN  =       -53.10598269 eV

  energy without entropy =      -53.09942926  energy(sigma->0) =      -53.10270598


--------------------------------------------------------------------------------------------------------




--------------------------------------- Iteration      1(   4)  ---------------------------------------


     EDDAV:  cpu time    0.3547: real time    0.3547
       DOS:  cpu time    0.0004: real time    0.0004
    --------------------------------------------
      LOOP:  cpu time    0.3551: real time    0.3642

 eigenvalue-minimisations  :  1686
 total energy-change (2. order) :-0.5826820E-01  (-0.5817848E-01)
 number of electron      32.0000000 magnetization 
 augmentation part       32.0000000 magnetization 

 Free energy of the ion-electron system (eV)
  ---------------------------------------------------
  alpha Z        PSCENC =       162.51357025
  Ewald energy   TEWEN  =     -1579.37806372
  -Hartree energ DENC   =       -38.97680006
  -exchange      EXHF   =         0.00000000
  -V(xc)+E(xc)   XCENC  =       118.67677442
  PAW double counting   =       868.17637104     -872.73161751
  entropy T*S    EENTRO =        -0.00659940
  eigenvalues    EBANDS =       111.35981201
  atomic energy  EATOM  =      1177.20230207
  Solvation  Ediel_sol  =         0.00000000
  ---------------------------------------------------
  free energy    TOTEN  =       -53.16425090 eV

  energy without entropy =      -53.15765150  energy(sigma->0) =      -53.16095120


--------------------------------------------------------------------------------------------------------




--------------------------------------- Iteration      1(   5)  ---------------------------------------


     EDDAV:  cpu time    0.3738: real time    0.3830
       DOS:  cpu time    0.0004: real time    0.0004
    CHARGE:  cpu time    0.0304: real time    0.0304
    MIXING:  cpu time    0.0004: real time    0.0004
    --------------------------------------------
      LOOP:  cpu time    0.4050: real time    0.4051

 eigenvalue-minimisations  :  1796
 total energy-change (2. order) :-0.1142803E-02  (-0.1142433E-02)
 number of electron      32.0000007 magnetization 
 augmentation part        0.9915845 magnetization 

 Broyden mixing:
  rms(total) = 0.15257E+01    rms(broyden)= 0.15256E+01
  rms(prec ) = 0.27543E+01
  weight for this iteration     100.00

 Free energy of the ion-electron system (eV)
  ---------------------------------------------------
  alpha Z        PSCENC =       162.51357025
  Ewald energy   TEWEN  =     -1579.37806372
  -Hartree energ DENC   =       -38.97680006
  -exchange      EXHF   =         0.00000000
  -V(xc)+E(xc)   XCENC  =       118.67677442
  PAW double counting   =       868.17637104     -872.73161751
  entropy T*S    EENTRO =        -0.00660021
  eigenvalues    EBANDS =       111.35867002
  atomic energy  EATOM  =      1177.20230207
  Solvation  Ediel_sol  =         0.00000000
  ---------------------------------------------------
  free energy    TOTEN  =       -53.16539370 eV

  energy without entropy =      -53.15879349  energy(sigma->0) =      -53.16209360


--------------------------------------------------------------------------------------------------------




--------------------------------------- Iteration      1(   6)  ---------------------------------------


    POTLOK:  cpu time    0.0138: real time    0.0138
    SETDIJ:  cpu time    0.0021: real time    0.0021
     EDDAV:  cpu time    0.3215: real time    0.3215
       DOS:  cpu time    0.0004: real time    0.0004
    CHARGE:  cpu time    0.0297: real time    0.0297
    MIXING:  cpu time    0.0005: real time    0.0005
    --------------------------------------------
      LOOP:  cpu time    0.3680: real time    0.3680

 eigenvalue-minimisations  :  1474
 total energy-change (2. order) : 0.3405105E+01  (-0.2322776E+00)
 number of electron      32.0000007 magnetization 
 augmentation part        0.9549534 magnetization 

 Broyden mixing:
  rms(total) = 0.90574E+00    rms(broyden)= 0.90573E+00
  rms(prec ) = 0.14751E+01
  weight for this iteration     100.00

 eigenvalues of (default mixing * dielectric matrix)
  average eigenvalue GAMMA=   2.2643
  2.2643

 Free energy of the ion-electron system (eV)
  ---------------------------------------------------
  alpha Z        PSCENC =       162.51357025
  Ewald energy   TEWEN  =     -1579.37806372
  -Hartree energ DENC   =       -53.92060199
  -exchange      EXHF   =         0.00000000
  -V(xc)+E(xc)   XCENC  =       120.02410560
  PAW double counting   =      1872.34570323    -1877.71750205
  entropy T*S    EENTRO =        -0.00790493
  eigenvalues    EBANDS =       129.17810300
  atomic energy  EATOM  =      1177.20230207
  Solvation  Ediel_sol  =         0.00000000
  ---------------------------------------------------
  free energy    TOTEN  =       -49.76028855 eV

  energy without entropy =      -49.75238362  energy(sigma->0) =      -49.75633609


--------------------------------------------------------------------------------------------------------




--------------------------------------- Iteration      1(   7)  ---------------------------------------


    POTLOK:  cpu time    0.0143: real time    0.0143
    SETDIJ:  cpu time    0.0020: real time    0.0020
     EDDAV:  cpu time    0.4160: real time    0.4160
       DOS:  cpu time    0.0005: real time    0.0005
    CHARGE:  cpu time    0.0404: real time    0.0404
    MIXING:  cpu time    0.0006: real time    0.0006
    --------------------------------------------
      LOOP:  cpu time    0.4738: real time    0.4738

 eigenvalue-minimisations  :  1588
 total energy-change (2. order) : 0.1034909E+01  (-0.2424342E+00)
 number of electron      32.0000006 magnetization 
 augmentation part        0.9161286 magnetization 

 Broyden mixing:
  rms(total) = 0.24646E+00    rms(broyden)= 0.24645E+00
  rms(prec ) = 0.26717E+00
  weight for this iteration     100.00

 eigenvalues of (default mixing * dielectric matrix)
  average eigenvalue GAMMA=   2.3045
  1.9727  2.6364

 Free energy of the ion-electron system (eV)
  ---------------------------------------------------
  alpha Z        PSCENC =       162.51357025
  Ewald energy   TEWEN  =     -1579.37806372
  -Hartree energ DENC   =       -72.37690917
  -exchange      EXHF   =         0.00000000
  -V(xc)+E(xc)   XCENC  =       121.72956854
  PAW double counting   =      3860.89137312    -3867.04211996
  entropy T*S    EENTRO =        -0.00540638
  eigenvalues    EBANDS =       147.74030534
  atomic energy  EATOM  =      1177.20230207
  Solvation  Ediel_sol  =         0.00000000
  ---------------------------------------------------
  free energy    TOTEN  =       -48.72537991 eV

  energy without entropy =      -48.71997353  energy(sigma->0) =      -48.72267672


--------------------------------------------------------------------------------------------------------




--------------------------------------- Iteration      1(   8)  ---------------------------------------


    POTLOK:  cpu time    0.0184: real time    0.0184
    SETDIJ:  cpu time    0.0027: real time    0.0027
     EDDAV:  cpu time    0.5169: real time    0.5169
       DOS:  cpu time    0.0005: real time    0.0005
    CHARGE:  cpu time    0.0437: real time    0.0437
    MIXING:  cpu time    0.0007: real time    0.0007
    --------------------------------------------
      LOOP:  cpu time    0.5829: real time    0.5829

 eigenvalue-minimisations  :  1704
 total energy-change (2. order) :-0.4061142E-02  (-0.8869975E-02)
 number of electron      32.0000006 magnetization 
 augmentation part        0.9163854 magnetization 

 Broyden mixing:
  rms(total) = 0.15261E-01    rms(broyden)= 0.15243E-01
  rms(prec ) = 0.23175E-01
  weight for this iteration     100.00

 eigenvalues of (default mixing * dielectric matrix)
  average eigenvalue GAMMA=   1.8392
  1.1337  2.4435  1.9402

 Free energy of the ion-electron system (eV)
  ---------------------------------------------------
  alpha Z        PSCENC =       162.51357025
  Ewald energy   TEWEN  =     -1579.37806372
  -Hartree energ DENC   =       -72.12002520
  -exchange      EXHF   =         0.00000000
  -V(xc)+E(xc)   XCENC  =       121.74411786
  PAW double counting   =      4625.66658499    -4631.70547373
  entropy T*S    EENTRO =        -0.00523955
  eigenvalues    EBANDS =       147.35278599
  atomic energy  EATOM  =      1177.20230207
  Solvation  Ediel_sol  =         0.00000000
  ---------------------------------------------------
  free energy    TOTEN  =       -48.72944105 eV

  energy without entropy =      -48.72420150  energy(sigma->0) =      -48.72682128


--------------------------------------------------------------------------------------------------------




--------------------------------------- Iteration      1(   9)  ---------------------------------------


    POTLOK:  cpu time    0.0201: real time    0.0201
    SETDIJ:  cpu time    0.0029: real time    0.0029
     EDDAV:  cpu time    0.5416: real time    0.5416
       DOS:  cpu time    0.0006: real time    0.0006
    CHARGE:  cpu time    0.0436: real time    0.0436
    MIXING:  cpu time    0.0007: real time    0.0007
    --------------------------------------------
      LOOP:  cpu time    0.6093: real time    0.6094

 eigenvalue-minimisations  :  1776
 total energy-change (2. order) : 0.3494692E-04  (-0.1366909E-03)
 number of electron      32.0000006 magnetization 
 augmentation part        0.9161485 magnetization 

 Broyden mixing:
  rms(total) = 0.78409E-02    rms(broyden)= 0.78389E-02
  rms(prec ) = 0.11424E-01
  weight for this iteration     100.00

 eigenvalues of (default mixing * dielectric matrix)
  average eigenvalue GAMMA=   1.9106
  1.0093  1.9287  2.3521  2.3521

 Free energy of the ion-electron system (eV)
  ---------------------------------------------------
  alpha Z        PSCENC =       162.51357025
  Ewald energy   TEWEN  =     -1579.37806372
  -Hartree energ DENC   =       -72.18231557
  -exchange      EXHF   =         0.00000000
  -V(xc)+E(xc)   XCENC  =       121.74832483
  PAW double counting   =      4601.66959360    -4607.70931003
  entropy T*S    EENTRO =        -0.00527114
  eigenvalues    EBANDS =       147.41176361
  atomic energy  EATOM  =      1177.20230207
  Solvation  Ediel_sol  =         0.00000000
  ---------------------------------------------------
  free energy    TOTEN  =       -48.72940611 eV

  energy without entropy =      -48.72413497  energy(sigma->0) =      -48.72677054


--------------------------------------------------------------------------------------------------------




--------------------------------------- Iteration      1(  10)  ---------------------------------------


    POTLOK:  cpu time    0.0199: real time    0.0199
    SETDIJ:  cpu time    0.0029: real time    0.0029
     EDDAV:  cpu time    0.5393: real time    0.5403
       DOS:  cpu time    0.0004: real time    0.0004
    CHARGE:  cpu time    0.0370: real time    0.0370
    MIXING:  cpu time    0.0006: real time    0.0006
    --------------------------------------------
      LOOP:  cpu time    0.6001: real time    0.6011

 eigenvalue-minimisations  :  1710
 total energy-change (2. order) :-0.7994474E-05  (-0.1320732E-04)
 number of electron      32.0000006 magnetization 
 augmentation part        0.9161612 magnetization 

 Broyden mixing:
  rms(total) = 0.12750E-02    rms(broyden)= 0.12746E-02
  rms(prec ) = 0.20999E-02
  weight for this iteration     100.00

 eigenvalues of (default mixing * dielectric matrix)
  average eigenvalue GAMMA=   1.7762
  2.4477  2.4477  1.9260  1.1087  0.9510

 Free energy of the ion-electron system (eV)
  ---------------------------------------------------
  alpha Z        PSCENC =       162.51357025
  Ewald energy   TEWEN  =     -1579.37806372
  -Hartree energ DENC   =       -72.18578173
  -exchange      EXHF   =         0.00000000
  -V(xc)+E(xc)   XCENC  =       121.74903534
  PAW double counting   =      4606.49087465    -4612.52334155
  entropy T*S    EENTRO =        -0.00529533
  eigenvalues    EBANDS =       147.40728593
  atomic energy  EATOM  =      1177.20230207
  Solvation  Ediel_sol  =         0.00000000
  ---------------------------------------------------
  free energy    TOTEN  =       -48.72941410 eV

  energy without entropy =      -48.72411877  energy(sigma->0) =      -48.72676643


--------------------------------------------------------------------------------------------------------




--------------------------------------- Iteration      1(  11)  ---------------------------------------


    POTLOK:  cpu time    0.0165: real time    0.0165
    SETDIJ:  cpu time    0.0023: real time    0.0023
     EDDAV:  cpu time    0.3973: real time    0.3973
       DOS:  cpu time    0.0004: real time    0.0004
    CHARGE:  cpu time    0.0299: real time    0.0299
    MIXING:  cpu time    0.0005: real time    0.0005
    --------------------------------------------
      LOOP:  cpu time    0.4470: real time    0.4470

 eigenvalue-minimisations  :  1742
 total energy-change (2. order) :-0.1287604E-05  (-0.1044798E-05)
 number of electron      32.0000006 magnetization 
 augmentation part        0.9161553 magnetization 

 Broyden mixing:
  rms(total) = 0.81965E-03    rms(broyden)= 0.81962E-03
  rms(prec ) = 0.10722E-02
  weight for this iteration     100.00

 eigenvalues of (default mixing * dielectric matrix)
  average eigenvalue GAMMA=   1.8161
  2.5126  2.5126  1.9550  1.8407  1.0379  1.0379

 Free energy of the ion-electron system (eV)
  ---------------------------------------------------
  alpha Z        PSCENC =       162.51357025
  Ewald energy   TEWEN  =     -1579.37806372
  -Hartree energ DENC   =       -72.18953879
  -exchange      EXHF   =         0.00000000
  -V(xc)+E(xc)   XCENC  =       121.74965988
  PAW double counting   =      4609.43112728    -4615.46294123
  entropy T*S    EENTRO =        -0.00529330
  eigenvalues    EBANDS =       147.40976219
  atomic energy  EATOM  =      1177.20230207
  Solvation  Ediel_sol  =         0.00000000
  ---------------------------------------------------
  free energy    TOTEN  =       -48.72941539 eV

  energy without entropy =      -48.72412209  energy(sigma->0) =      -48.72676874


--------------------------------------------------------------------------------------------------------




--------------------------------------- Iteration      1(  12)  ---------------------------------------


    POTLOK:  cpu time    0.0144: real time    0.0144
    SETDIJ:  cpu time    0.0021: real time    0.0021
     EDDAV:  cpu time    0.2819: real time    0.2819
       DOS:  cpu time    0.0004: real time    0.0004
    --------------------------------------------
      LOOP:  cpu time    0.2988: real time    0.2988

 eigenvalue-minimisations  :  1112
 total energy-change (2. order) :-0.6911134E-06  (-0.5866979E-07)
 number of electron      32.0000006 magnetization 
 augmentation part        0.9161553 magnetization 

 Free energy of the ion-electron system (eV)
  ---------------------------------------------------
  alpha Z        PSCENC =       162.51357025
  Ewald energy   TEWEN  =     -1579.37806372
  -Hartree energ DENC   =       -72.19364848
  -exchange      EXHF   =         0.00000000
  -V(xc)+E(xc)   XCENC  =       121.75009340
  PAW double counting   =      4607.55887444    -4613.59055901
  entropy T*S    EENTRO =        -0.00529245
  eigenvalues    EBANDS =       147.41330743
  atomic energy  EATOM  =      1177.20230207
  Solvation  Ediel_sol  =         0.00000000
  ---------------------------------------------------
  free energy    TOTEN  =       -48.72941608 eV

  energy without entropy =      -48.72412363  energy(sigma->0) =      -48.72676986


--------------------------------------------------------------------------------------------------------




 average (electrostatic) potential at core
  the test charge radii are     0.6991
  (the norm of the test charge is              1.0000)
       1 -40.4786       2 -40.4786       3 -40.4786       4 -40.4786       5 -40.4786
       6 -40.4786       7 -40.4786       8 -40.4786
 
 
 
 E-fermi :  16.6582     XC(G=0): -15.2147     alpha+bet :-24.7844

 Fermi energy:        16.6582430252

 k-point     1 :       0.1250    0.1250    0.1250
  band No.  band energies     occupation 
      1     -10.7617      2.00000
      2      -5.7567      2.00000
      3      -2.3265      2.00000
      4      -1.0181      2.00000
      5       1.5904      2.00000
      6       1.7404      2.00000
      7       2.4391      2.00000
      8       4.5276      2.00000
      9       7.7982      2.00000
     10       7.9633      2.00000
     11       9.0691      2.00000
     12       9.5230      2.00000
     13       9.5333      2.00000
     14      14.0079      2.00000
     15      15.2963      2.00000
     16      15.3791      2.00000
     17      17.5890      0.00000
     18      18.8102      0.00000
     19      19.0583      0.00000
     20      21.2430      0.00000
     21      25.9232      0.00000
     22      26.0530      0.00000

 k-point     2 :       0.3750    0.1250    0.1250
  band No.  band energies     occupation 
      1      -9.4904      2.00000
      2      -6.3909      2.00000
      3      -4.7731      2.00000
      4      -1.2369      2.00000
      5       0.2511      2.00000
      6       1.9284      2.00000
      7       4.8935      2.00000
      8       5.2970      2.00000
      9       6.5403      2.00000
     10       8.1850      2.00000
     11       9.5682      2.00000
     12      11.2548      2.00000
     13      11.3544      2.00000
     14      11.5179      2.00000
     15      14.4939      2.00000
     16      15.0524      2.00000
     17      18.3530      0.00000
     18      18.9726      0.00000
     19      21.8027      0.00000
     20      22.3717      0.00000
     21      23.1352      0.00000
     22      25.9758      0.00000

 k-point     3 :      -0.3750    0.1250    0.1250
  band No.  band energies     occupation 
      1      -9.2017      2.00000
      2      -6.8885      2.00000
      3      -3.9407      2.00000
      4      -2.7217      2.00000
      5      -0.0074      2.00000
      6       2.4239      2.00000
      7       3.9040      2.00000
      8       7.3443      2.00000
      9       8.1096      2.00000
     10       8.7142      2.00000
     11       9.4836      2.00000
     12       9.9384      2.00000
     13      11.7775      2.00000
     14      12.2396      2.00000
     15      12.3580      2.00000
     16      14.0276      2.00000
     17      20.0248      0.00000
     18      20.5802      0.00000
     19      20.6223      0.00000
     20      22.8707      0.00000
     21      23.7294      0.00000
     22      23.8018      0.00000

 k-point     4 :      -0.1250    0.1250    0.1250
  band No.  band energies     occupation 
      1     -10.6665      2.00000
      2      -5.4853      2.00000
      3      -3.0743      2.00000
      4      -1.1014      2.00000
      5      -0.2536      2.00000
      6       2.9206      2.00000
      7       3.9980      2.00000
      8       4.2597      2.00000
      9       7.2148      2.00000
     10       9.0723      2.00000
     11       9.6158      2.00000
     12       9.7195      2.00000
     13      10.4073      2.00000
     14      12.2172      2.00000
     15      15.1063      2.00000
     16      15.7070      2.00000
     17      16.6755      0.80671
     18      19.3322      0.00000
     19      19.4623      0.00000
     20      21.7054      0.00000
     21      23.7933      0.00000
     22      24.6756      0.00000

 k-point     5 :       0.1250    0.3750    0.1250
  band No.  band energies     occupation 
      1      -9.6910      2.00000
      2      -8.3563      2.00000
      3      -1.5974      2.00000
      4       0.1343      2.00000
      5       1.5818      2.00000
      6       2.6748      2.00000
      7       3.2593      2.00000
      8       5.2218      2.00000
      9       5.8496      2.00000
     10       7.1059      2.00000
     11       8.0782      2.00000
     12       9.0813      2.00000
     13      10.1158      2.00000
     14      12.6829      2.00000
     15      16.0233      2.00000
     16      17.4152      0.00000
     17      18.0143      0.00000
     18      19.0069      0.00000
     19      21.5137      0.00000
     20      21.9530      0.00000
     21      22.5502      0.00000
     22      24.1251      0.00000

 k-point     6 :       0.3750    0.3750    0.1250
  band No.  band energies     occupation 
      1      -8.3903      2.00000
      2      -7.2574      2.00000
      3      -5.5085      2.00000
      4      -3.7401      2.00000
      5       4.1428      2.00000
      6       4.3953      2.00000
      7       5.6367      2.00000
      8       5.6475      2.00000
      9       5.7483      2.00000
     10       6.7469      2.00000
     11       8.4558      2.00000
     12      10.5004      2.00000
     13      10.8617      2.00000
     14      11.5719      2.00000
     15      14.1481      2.00000
     16      15.7617      2.00000
     17      17.9007      0.00000
     18      18.2485      0.00000
     19      18.9788      0.00000
     20      23.5035      0.00000
     21      24.0594      0.00000
     22      26.4221      0.00000

 k-point     7 :      -0.3750    0.3750    0.1250
  band No.  band energies     occupation 
      1      -8.2326      2.00000
      2      -6.5777      2.00000
      3      -5.7789      2.00000
      4      -4.9312      2.00000
      5       3.5606      2.00000
      6       4.0519      2.00000
      7       5.7190      2.00000
      8       6.0785      2.00000
      9       7.2309      2.00000
     10       8.1497      2.00000
     11       8.5154      2.00000
     12      10.2988      2.00000
     13      11.6857      2.00000
     14      12.5440      2.00000
     15      12.5967      2.00000
     16      12.8135      2.00000
     17      17.7590      0.00000
     18      19.7075      0.00000
     19      19.9585      0.00000
     20      21.8996      0.00000
     21      23.5767      0.00000
     22      25.3872      0.00000

 k-point     8 :      -0.1250    0.3750    0.1250
  band No.  band energies     occupation 
      1      -9.6387      2.00000
      2      -8.1337      2.00000
      3      -2.0027      2.00000
      4      -1.7202      2.00000
      5       3.1623      2.00000
      6       3.3120      2.00000
      7       3.5472      2.00000
      8       4.5439      2.00000
      9       6.2711      2.00000
     10       6.3937      2.00000
     11       9.0876      2.00000
     12      10.7046      2.00000
     13      10.8913      2.00000
     14      12.7165      2.00000
     15      13.4812      2.00000
     16      15.5873      2.00000
     17      18.0494      0.00000
     18      19.8539      0.00000
     19      21.3465      0.00000
     20      21.9043      0.00000
     21      22.7471      0.00000
     22      25.3119      0.00000

 k-point     9 :       0.1250   -0.3750    0.1250
  band No.  band energies     occupation 
      1     -10.0851      2.00000
      2      -7.6931      2.00000
      3      -1.4114      2.00000
      4      -0.1922      2.00000
      5       1.3316      2.00000
      6       1.7139      2.00000
      7       3.7653      2.00000
      8       5.0181      2.00000
      9       5.5782      2.00000
     10       7.2569      2.00000
     11       9.5619      2.00000
     12       9.6571      2.00000
     13      10.2329      2.00000
     14      11.3729      2.00000
     15      16.0548      2.00000
     16      17.3418      0.00000
     17      17.4359      0.00000
     18      19.7272      0.00000
     19      21.9869      0.00000
     20      22.7017      0.00000
     21      24.0881      0.00000
     22      24.8482      0.00000

 k-point    10 :       0.3750   -0.3750    0.1250
  band No.  band energies     occupation 
      1      -8.9102      2.00000
      2      -6.3776      2.00000
      3      -5.4939      2.00000
      4      -3.7729      2.00000
      5       2.1607      2.00000
      6       4.9751      2.00000
      7       5.0355      2.00000
      8       5.8782      2.00000
      9       6.9449      2.00000
     10       8.0295      2.00000
     11       8.3004      2.00000
     12       8.9893      2.00000
     13      10.4178      2.00000
     14      11.9368      2.00000
     15      14.2979      2.00000
     16      16.0593      2.00000
     17      17.7440      0.00000
     18      20.2967      0.00000
     19      20.3808      0.00000
     20      22.8089      0.00000
     21      24.6321      0.00000
     22      24.7933      0.00000

 k-point    11 :      -0.3750   -0.3750    0.1250
  band No.  band energies     occupation 
      1      -8.3666      2.00000
      2      -6.4365      2.00000
      3      -6.3560      2.00000
      4      -3.8036      2.00000
      5       2.9059      2.00000
      6       3.4654      2.00000
      7       4.3510      2.00000
      8       7.1753      2.00000
      9       7.9244      2.00000
     10       8.3446      2.00000
     11       9.0311      2.00000
     12      10.1741      2.00000
     13      10.8961      2.00000
     14      11.5969      2.00000
     15      12.5293      2.00000
     16      14.1635      2.00000
     17      17.5859      0.00000
     18      20.7082      0.00000
     19      21.3357      0.00000
     20      21.4742      0.00000
     21      24.9536      0.00000
     22      24.9780      0.00000

 k-point    12 :      -0.1250   -0.3750    0.1250
  band No.  band energies     occupation 
      1      -9.9066      2.00000
      2      -7.6854      2.00000
      3      -2.8534      2.00000
      4      -0.2281      2.00000
      5       2.1394      2.00000
      6       3.1164      2.00000
      7       3.7140      2.00000
      8       4.1018      2.00000
      9       5.0201      2.00000
     10       7.4583      2.00000
     11       9.5820      2.00000
     12      11.7617      2.00000
     13      11.7815      2.00000
     14      12.1085      2.00000
     15      13.8378      2.00000
     16      14.1751      2.00000
     17      16.4317      1.99864
     18      22.0810      0.00000
     19      22.2260      0.00000
     20      22.6349      0.00000
     21      23.9848      0.00000
     22      24.1619      0.00000

 k-point    13 :       0.1250   -0.1250    0.1250
  band No.  band energies     occupation 
      1     -10.8924      2.00000
      2      -4.8356      2.00000
      3      -2.2672      2.00000
      4      -2.2444      2.00000
      5       1.3115      2.00000
      6       1.4083      2.00000
      7       3.8025      2.00000
      8       3.9118      2.00000
      9       6.5722      2.00000
     10       8.5321      2.00000
     11       9.4021      2.00000
     12       9.6768      2.00000
     13      11.3366      2.00000
     14      12.3949      2.00000
     15      15.1903      2.00000
     16      15.3024      2.00000
     17      17.5070      0.00000
     18      18.6006      0.00000
     19      20.8289      0.00000
     20      22.5283      0.00000
     21      25.9252      0.00000
     22      26.2394      0.00000

 k-point    14 :       0.3750   -0.1250    0.1250
  band No.  band energies     occupation 
      1      -9.6625      2.00000
      2      -6.3871      2.00000
      3      -3.5472      2.00000
      4      -1.4226      2.00000
      5      -1.2859      2.00000
      6       1.9628      2.00000
      7       5.6255      2.00000
      8       5.7924      2.00000
      9       6.2678      2.00000
     10       7.4317      2.00000
     11       9.1690      2.00000
     12      10.7103      2.00000
     13      11.4461      2.00000
     14      12.3916      2.00000
     15      14.5037      2.00000
     16      15.4971      2.00000
     17      19.2554      0.00000
     18      21.0990      0.00000
     19      21.3223      0.00000
     20      22.4893      0.00000
     21      22.9706      0.00000
     22      23.9708      0.00000

 k-point    15 :      -0.3750   -0.1250    0.1250
  band No.  band energies     occupation 
      1      -9.2465      2.00000
      2      -7.1050      2.00000
      3      -3.6355      2.00000
      4      -1.1819      2.00000
      5      -0.4223      2.00000
      6       0.2385      2.00000
      7       5.0947      2.00000
      8       5.8566      2.00000
      9       8.7543      2.00000
     10       8.8086      2.00000
     11       9.4065      2.00000
     12      11.3419      2.00000
     13      11.3680      2.00000
     14      11.6016      2.00000
     15      11.8448      2.00000
     16      15.0109      2.00000
     17      19.4443      0.00000
     18      20.4028      0.00000
     19      22.7525      0.00000
     20      23.3559      0.00000
     21      23.9190      0.00000
     22      24.1677      0.00000

 k-point    16 :      -0.1250   -0.1250    0.1250
  band No.  band energies     occupation 
      1     -10.7556      2.00000
      2      -4.8655      2.00000
      3      -3.3502      2.00000
      4      -1.9181      2.00000
      5       1.1188      2.00000
      6       2.4567      2.00000
      7       3.0366      2.00000
      8       4.9575      2.00000
      9       5.4779      2.00000
     10       9.2350      2.00000
     11      10.2299      2.00000
     12      10.7136      2.00000
     13      11.1895      2.00000
     14      12.6088      2.00000
     15      13.8478      2.00000
     16      15.4294      2.00000
     17      16.6140      1.46881
     18      18.9684      0.00000
     19      19.5457      0.00000
     20      23.4301      0.00000
     21      24.9853      0.00000
     22      25.1590      0.00000

 k-point    17 :       0.1250    0.1250    0.3750
  band No.  band energies     occupation 
      1      -8.4214      2.00000
      2      -4.5276      2.00000
      3      -3.8418      2.00000
      4       0.4080      2.00000
      5       1.6175      2.00000
      6       1.8749      2.00000
      7       3.0413      2.00000
      8       3.6818      2.00000
      9       4.5644      2.00000
     10       5.9477      2.00000
     11       6.2429      2.00000
     12       6.6280      2.00000
     13       9.2003      2.00000
     14      11.2236      2.00000
     15      12.2253      2.00000
     16      16.8885      0.00113
     17      16.9155      0.00027
     18      17.3985      0.00000
     19      23.0287      0.00000
     20      25.3097      0.00000
     21      25.9772      0.00000
     22      26.4563      0.00000

 k-point    18 :       0.3750    0.1250    0.3750
  band No.  band energies     occupation 
      1      -7.4160      2.00000
      2      -4.1850      2.00000
      3      -3.3900      2.00000
      4      -1.8743      2.00000
      5      -0.0115      2.00000
      6       0.8745      2.00000
      7       3.0737      2.00000
      8       3.7902      2.00000
      9       4.5614      2.00000
     10       5.1684      2.00000
     11       5.4425      2.00000
     12       6.4066      2.00000
     13      11.1299      2.00000
     14      13.7373      2.00000
     15      15.9291      2.00000
     16      16.9271      0.00014
     17      18.4518      0.00000
     18      19.3890      0.00000
     19      22.1747      0.00000
     20      25.1991      0.00000
     21      25.9666      0.00000
     22      26.2783      0.00000

 k-point    19 :      -0.3750    0.1250    0.3750
  band No.  band energies     occupation 
      1      -6.4033      2.00000
      2      -5.1608      2.00000
      3      -4.2356      2.00000
      4      -2.1356      2.00000
      5       0.0941      2.00000
      6       1.4057      2.00000
      7       3.1910      2.00000
      8       3.4474      2.00000
      9       4.4024      2.00000
     10       5.0129      2.00000
     11       6.7353      2.00000
     12       7.4591      2.00000
     13      12.0120      2.00000
     14      12.3929      2.00000
     15      15.3797      2.00000
     16      16.4272      1.99892
     17      18.6469      0.00000
     18      20.3793      0.00000
     19      21.6861      0.00000
     20      22.7660      0.00000
     21      23.8661      0.00000
     22      26.6917      0.00000

 k-point    20 :      -0.1250    0.1250    0.3750
  band No.  band energies     occupation 
      1      -8.0896      2.00000
      2      -4.5431      2.00000
      3      -3.9387      2.00000
      4      -2.0125      2.00000
      5       2.1020      2.00000
      6       2.8803      2.00000
      7       3.0563      2.00000
      8       3.7706      2.00000
      9       5.8722      2.00000
     10       6.4956      2.00000
     11       6.6443      2.00000
     12       7.3797      2.00000
     13       7.9962      2.00000
     14      10.2977      2.00000
     15      13.4279      2.00000
     16      15.3169      2.00000
     17      17.3976      0.00000
     18      17.6619      0.00000
     19      21.0676      0.00000
     20      23.4853      0.00000
     21      25.5365      0.00000
     22      28.4083      0.00000

 k-point    21 :       0.1250    0.3750    0.3750
  band No.  band energies     occupation 
      1      -7.1408      2.00000
      2      -6.7615      2.00000
      3      -3.5263      2.00000
      4       0.0626      2.00000
      5       2.0470      2.00000
      6       2.7868      2.00000
      7       2.8017      2.00000
      8       3.4089      2.00000
      9       4.2387      2.00000
     10       5.1913      2.00000
     11       6.4450      2.00000
     12       9.0117      2.00000
     13       9.1822      2.00000
     14      11.8994      2.00000
     15      12.5838      2.00000
     16      14.3389      2.00000
     17      16.9215      0.00020
     18      20.2987      0.00000
     19      21.5484      0.00000
     20      22.9182      0.00000
     21      25.0035      0.00000
     22      26.9115      0.00000

 k-point    22 :       0.3750    0.3750    0.3750
  band No.  band energies     occupation 
      1      -6.1027      2.00000
      2      -6.0282      2.00000
      3      -2.3866      2.00000
      4      -1.5118      2.00000
      5      -1.3471      2.00000
      6      -0.2742      2.00000
      7       2.2603      2.00000
      8       2.3142      2.00000
      9       5.8259      2.00000
     10       7.1448      2.00000
     11       7.4269      2.00000
     12       7.8875      2.00000
     13      12.7588      2.00000
     14      13.0720      2.00000
     15      14.9341      2.00000
     16      16.4391      1.99806
     17      16.9540      0.00003
     18      18.6363      0.00000
     19      20.6645      0.00000
     20      23.8431      0.00000
     21      24.2219      0.00000
     22      24.7169      0.00000

 k-point    23 :      -0.3750    0.3750    0.3750
  band No.  band energies     occupation 
      1      -5.2462      2.00000
      2      -4.7678      2.00000
      3      -4.4767      2.00000
      4      -3.8230      2.00000
      5      -1.3345      2.00000
      6       0.6308      2.00000
      7       1.8578      2.00000
      8       4.9808      2.00000
      9       6.5329      2.00000
     10       7.0653      2.00000
     11       7.0690      2.00000
     12       8.3395      2.00000
     13      12.4298      2.00000
     14      12.7838      2.00000
     15      15.2253      2.00000
     16      15.5406      2.00000
     17      16.6058      1.54132
     18      17.6436      0.00000
     19      21.8685      0.00000
     20      22.4470      0.00000
     21      22.9089      0.00000
     22      25.4770      0.00000

 k-point    24 :      -0.1250    0.3750    0.3750
  band No.  band energies     occupation 
      1      -6.8573      2.00000
      2      -6.2769      2.00000
      3      -4.3753      2.00000
      4      -0.7976      2.00000
      5       0.2121      2.00000
      6       1.0512      2.00000
      7       5.7141      2.00000
      8       5.7428      2.00000
      9       6.0752      2.00000
     10       6.2144      2.00000
     11       7.2596      2.00000
     12       8.2117      2.00000
     13       8.3626      2.00000
     14       9.3317      2.00000
     15      12.9501      2.00000
     16      13.1828      2.00000
     17      18.8885      0.00000
     18      18.9407      0.00000
     19      20.5303      0.00000
     20      21.7099      0.00000
     21      25.8163      0.00000
     22      26.5703      0.00000

 k-point    25 :       0.1250   -0.3750    0.3750
  band No.  band energies     occupation 
      1      -8.2113      2.00000
      2      -4.9523      2.00000
      3      -2.4336      2.00000
      4      -1.9394      2.00000
      5       1.3419      2.00000
      6       1.4512      2.00000
      7       3.3979      2.00000
      8       3.8570      2.00000
      9       4.4452      2.00000
     10       5.0891      2.00000
     11       6.4395      2.00000
     12       9.7080      2.00000
     13      10.8279      2.00000
     14      11.9785      2.00000
     15      12.4652      2.00000
     16      13.8830      2.00000
     17      17.3170      0.00000
     18      20.1494      0.00000
     19      20.6285      0.00000
     20      22.8956      0.00000
     21      24.3700      0.00000
     22      27.3973      0.00000

 k-point    26 :       0.3750   -0.3750    0.3750
  band No.  band energies     occupation 
      1      -7.3275      2.00000
      2      -3.8996      2.00000
      3      -2.8990      2.00000
      4      -1.0108      2.00000
      5      -0.2808      2.00000
      6      -0.1994      2.00000
      7       0.7203      2.00000
      8       0.7267      2.00000
      9       5.1925      2.00000
     10       5.8065      2.00000
     11       8.5741      2.00000
     12       9.8721      2.00000
     13      12.4133      2.00000
     14      14.2719      2.00000
     15      16.1063      2.00000
     16      17.2043      0.00000
     17      17.3221      0.00000
     18      17.5019      0.00000
     19      21.4727      0.00000
     20      22.0884      0.00000
     21      22.8422      0.00000
     22      24.0516      0.00000

 k-point    27 :      -0.3750   -0.3750    0.3750
  band No.  band energies     occupation 
      1      -6.0104      2.00000
      2      -5.3908      2.00000
      3      -3.2197      2.00000
      4      -1.9726      2.00000
      5      -1.4040      2.00000
      6      -0.8985      2.00000
      7       2.9635      2.00000
      8       3.0520      2.00000
      9       4.6867      2.00000
     10       5.9879      2.00000
     11       9.5098      2.00000
     12       9.5493      2.00000
     13      13.7453      2.00000
     14      13.8511      2.00000
     15      13.8834      2.00000
     16      14.6442      2.00000
     17      16.1442      2.00000
     18      19.9168      0.00000
     19      21.1218      0.00000
     20      22.1515      0.00000
     21      22.9921      0.00000
     22      24.9164      0.00000

 k-point    28 :      -0.1250   -0.3750    0.3750
  band No.  band energies     occupation 
      1      -7.7871      2.00000
      2      -4.7200      2.00000
      3      -3.6616      2.00000
      4      -2.4516      2.00000
      5       0.3087      2.00000
      6       1.6041      2.00000
      7       2.5620      2.00000
      8       6.6593      2.00000
      9       6.7125      2.00000
     10       7.2776      2.00000
     11       7.6023      2.00000
     12       7.6093      2.00000
     13      10.0287      2.00000
     14      10.7109      2.00000
     15      11.3377      2.00000
     16      11.8551      2.00000
     17      16.2956      2.00000
     18      22.6854      0.00000
     19      22.7624      0.00000
     20      22.9308      0.00000
     21      24.4445      0.00000
     22      25.2400      0.00000

 k-point    29 :       0.1250   -0.1250    0.3750
  band No.  band energies     occupation 
      1      -8.7760      2.00000
      2      -3.3115      2.00000
      3      -2.2476      2.00000
      4      -1.2612      2.00000
      5      -0.8128      2.00000
      6       0.8806      2.00000
      7       3.9826      2.00000
      8       4.5308      2.00000
      9       5.1169      2.00000
     10       5.6443      2.00000
     11       5.8182      2.00000
     12       7.3892      2.00000
     13      10.1070      2.00000
     14      11.4402      2.00000
     15      12.5731      2.00000
     16      15.3098      2.00000
     17      16.4239      1.99908
     18      19.9384      0.00000
     19      21.9232      0.00000
     20      24.8471      0.00000
     21      24.9706      0.00000
     22      28.0453      0.00000

 k-point    30 :       0.3750   -0.1250    0.3750
  band No.  band energies     occupation 
      1      -7.8176      2.00000
      2      -3.5733      2.00000
      3      -2.3528      2.00000
      4      -1.4831      2.00000
      5      -0.6665      2.00000
      6       1.5994      2.00000
      7       1.9486      2.00000
      8       2.4586      2.00000
      9       2.6633      2.00000
     10       3.6318      2.00000
     11       7.7185      2.00000
     12       8.8067      2.00000
     13      10.8595      2.00000
     14      14.4923      2.00000
     15      15.8534      2.00000
     16      17.4143      0.00000
     17      18.4674      0.00000
     18      21.1261      0.00000
     19      21.9349      0.00000
     20      23.6404      0.00000
     21      23.6988      0.00000
     22      25.7599      0.00000

 k-point    31 :      -0.3750   -0.1250    0.3750
  band No.  band energies     occupation 
      1      -6.6592      2.00000
      2      -5.6504      2.00000
      3      -3.3755      2.00000
      4      -0.5419      2.00000
      5       0.9479      2.00000
      6       1.0282      2.00000
      7       1.3110      2.00000
      8       2.1943      2.00000
      9       3.0224      2.00000
     10       4.8623      2.00000
     11       7.3681      2.00000
     12       9.4972      2.00000
     13      12.5142      2.00000
     14      12.5824      2.00000
     15      14.8617      2.00000
     16      16.1299      2.00000
     17      19.5195      0.00000
     18      19.9443      0.00000
     19      23.3440      0.00000
     20      23.4305      0.00000
     21      23.5566      0.00000
     22      24.9462      0.00000

 k-point    32 :      -0.1250   -0.1250    0.3750
  band No.  band energies     occupation 
      1      -8.3989      2.00000
      2      -3.9201      2.00000
      3      -2.8885      2.00000
      4      -1.8829      2.00000
      5      -0.6441      2.00000
      6       1.2405      2.00000
      7       3.9888      2.00000
      8       5.5353      2.00000
      9       6.1163      2.00000
     10       6.3505      2.00000
     11       7.0525      2.00000
     12       8.0594      2.00000
     13       8.4345      2.00000
     14       9.1483      2.00000
     15      13.0113      2.00000
     16      14.5529      2.00000
     17      16.7516      0.18669
     18      19.4065      0.00000
     19      22.1065      0.00000
     20      23.8732      0.00000
     21      26.7970      0.00000
     22      27.2113      0.00000


--------------------------------------------------------------------------------------------------------


 soft charge-density along one line, spin component           1
         0         1         2         3         4         5         6         7         8         9
 total charge-density along one line
 
 pseudopotential strength for first ion, spin component:           1
  9.159  12.156   0.000   0.000  -0.003  -0.002  -0.001   0.011
 12.156  16.131   0.000   0.000  -0.004  -0.003  -0.001   0.015
[...]
      5      -0.3448      2.00000
      6       1.7417      2.00000
      7       3.2072      2.00000
      8       3.6317      2.00000
      9       4.0755      2.00000
     10       5.1745      2.00000
     11       7.1696      2.00000
     12       8.1663      2.00000
     13      11.3865      2.00000
     14      13.1356      2.00000
     15      14.2946      2.00000
     16      17.4528      0.00248
     17      18.1659      0.00000
     18      21.0922      0.00000
     19      21.7827      0.00000
     20      23.4313      0.00000
     21      24.4857      0.00000
     22      26.7478      0.00000

 k-point    20 :      -0.1250    0.1250    0.3750
  band No.  band energies     occupation 
      1      -7.9751      2.00000
      2      -4.3426      2.00000
      3      -3.7302      2.00000
      4      -1.6765      2.00000
      5       2.2732      2.00000
      6       2.5492      2.00000
      7       3.0436      2.00000
      8       3.3781      2.00000
      9       6.2017      2.00000
     10       6.9493      2.00000
     11       6.9956      2.00000
     12       7.0359      2.00000
     13       8.3629      2.00000
     14      10.6315      2.00000
     15      14.1277      2.00000
     16      14.9953      2.00000
     17      17.4219      0.00962
     18      17.6012      0.00000
     19      21.0401      0.00000
     20      24.2267      0.00000
     21      25.5949      0.00000
     22      27.5289      0.00000

 k-point    21 :       0.1250    0.3750    0.3750
  band No.  band energies     occupation 
      1      -7.0223      2.00000
      2      -6.6327      2.00000
      3      -3.3111      2.00000
      4       0.5083      2.00000
      5       1.9742      2.00000
      6       2.5035      2.00000
      7       3.1242      2.00000
      8       4.0235      2.00000
      9       4.7519      2.00000
     10       4.8452      2.00000
     11       6.6416      2.00000
     12       8.0032      2.00000
     13       8.3913      2.00000
     14      12.4432      2.00000
     15      13.2344      2.00000
     16      15.4032      2.00000
     17      17.7655      0.00000
     18      19.7147      0.00000
     19      21.2159      0.00000
     20      23.2009      0.00000
     21      24.3114      0.00000
     22      27.1822      0.00000

 k-point    22 :       0.3750    0.3750    0.3750
  band No.  band energies     occupation 
      1      -5.9769      2.00000
      2      -5.8592      2.00000
      3      -2.1535      2.00000
      4      -1.3950      2.00000
      5      -0.9769      2.00000
      6      -0.5763      2.00000
      7       2.4831      2.00000
      8       2.6478      2.00000
      9       6.2752      2.00000
     10       6.7664      2.00000
     11       7.2987      2.00000
     12       7.9521      2.00000
     13      11.8863      2.00000
     14      12.9122      2.00000
     15      16.1426      2.00000
     16      17.2303      1.09538
     17      17.7944      0.00000
     18      18.1456      0.00000
     19      20.3509      0.00000
     20      24.3574      0.00000
     21      24.8692      0.00000
     22      25.2236      0.00000

 k-point    23 :      -0.3750    0.3750    0.3750
  band No.  band energies     occupation 
      1      -5.0805      2.00000
      2      -4.4349      2.00000
      3      -4.2943      2.00000
      4      -3.6449      2.00000
      5      -1.7900      2.00000
      6       0.8849      2.00000
      7       2.1473      2.00000
      8       5.1275      2.00000
      9       5.5847      2.00000
     10       7.3531      2.00000
     11       8.2323      2.00000
     12       8.4991      2.00000
     13      11.8697      2.00000
     14      13.8042      2.00000
     15      14.2406      2.00000
     16      16.2829      2.00000
     17      16.7346      2.00000
     18      17.4763      0.00079
     19      22.4700      0.00000
     20      22.8699      0.00000
     21      23.1682      0.00000
     22      25.3417      0.00000

 k-point    24 :      -0.1250    0.3750    0.3750
  band No.  band energies     occupation 
      1      -6.7244      2.00000
      2      -6.1318      2.00000
      3      -4.1270      2.00000
      4      -0.3309      2.00000
      5       0.2611      2.00000
      6       0.6805      2.00000
      7       5.3948      2.00000
      8       5.6975      2.00000
      9       6.1500      2.00000
     10       6.5142      2.00000
     11       7.5778      2.00000
     12       8.4180      2.00000
     13       8.7113      2.00000
     14       9.7583      2.00000
     15      12.5117      2.00000
     16      13.4482      2.00000
     17      19.2666      0.00000
     18      19.7156      0.00000
     19      20.8112      0.00000
     20      21.2568      0.00000
     21      24.7847      0.00000
     22      26.5266      0.00000

 k-point    25 :       0.1250   -0.3750    0.3750
  band No.  band energies     occupation 
      1      -8.1104      2.00000
      2      -4.7980      2.00000
      3      -2.1585      2.00000
      4      -1.6865      2.00000
      5       1.7309      2.00000
      6       1.7533      2.00000
      7       3.4910      2.00000
      8       3.5716      2.00000
      9       4.0080      2.00000
     10       5.6237      2.00000
     11       5.7458      2.00000
     12       9.9294      2.00000
     13      11.3180      2.00000
     14      11.3666      2.00000
     15      13.1879      2.00000
     16      14.5705      2.00000
     17      17.2377      1.01269
     18      20.6084      0.00000
     19      20.8800      0.00000
     20      23.2643      0.00000
     21      23.6136      0.00000
     22      27.1403      0.00000

 k-point    26 :       0.3750   -0.3750    0.3750
  band No.  band energies     occupation 
      1      -7.2124      2.00000
      2      -3.7316      2.00000
      3      -2.7155      2.00000
      4      -0.5725      2.00000
      5       0.0342      2.00000
      6       0.1436      2.00000
      7       0.4634      2.00000
      8       0.6585      2.00000
      9       4.3282      2.00000
     10       6.7179      2.00000
     11       8.3546      2.00000
     12       9.9937      2.00000
     13      12.7255      2.00000
     14      13.3860      2.00000
     15      16.8185      2.00000
     16      17.2117      1.29850
     17      18.1004      0.00000
     18      18.1960      0.00000
     19      21.1551      0.00000
     20      22.2586      0.00000
     21      23.1178      0.00000
     22      25.0838      0.00000

 k-point    27 :      -0.3750   -0.3750    0.3750
  band No.  band energies     occupation 
      1      -5.8608      2.00000
      2      -5.1643      2.00000
      3      -3.0001      2.00000
      4      -1.5645      2.00000
      5      -1.3795      2.00000
      6      -1.2509      2.00000
      7       3.0343      2.00000
      8       3.3907      2.00000
      9       5.1273      2.00000
     10       5.4944      2.00000
     11       9.6228      2.00000
     12       9.6517      2.00000
     13      12.9642      2.00000
     14      13.6575      2.00000
     15      14.5608      2.00000
     16      15.7123      2.00000
     17      17.0566      1.99005
     18      19.4328      0.00000
     19      20.9479      0.00000
     20      22.8609      0.00000
     21      23.4142      0.00000
     22      24.7995      0.00000

 k-point    28 :      -0.1250   -0.3750    0.3750
  band No.  band energies     occupation 
      1      -7.6691      2.00000
      2      -4.5491      2.00000
      3      -3.3083      2.00000
      4      -2.2246      2.00000
      5      -0.1633      2.00000
      6       1.9052      2.00000
      7       2.9037      2.00000
      8       6.1293      2.00000
      9       6.9298      2.00000
     10       7.3001      2.00000
     11       7.6572      2.00000
     12       8.0264      2.00000
     13       9.4407      2.00000
     14      11.1665      2.00000
     15      11.6735      2.00000
     16      12.3230      2.00000
     17      17.1978      1.43833
     18      21.9372      0.00000
     19      22.7918      0.00000
     20      23.2103      0.00000
     21      24.5862      0.00000
     22      24.7580      0.00000

 k-point    29 :       0.1250   -0.1250    0.3750
  band No.  band energies     occupation 
      1      -8.6819      2.00000
      2      -3.1068      2.00000
      3      -1.7322      2.00000
      4      -1.3490      2.00000
      5      -0.4595      2.00000
      6       1.2232      2.00000
      7       3.4959      2.00000
      8       3.9703      2.00000
      9       5.1880      2.00000
     10       5.3351      2.00000
     11       6.4816      2.00000
     12       7.7205      2.00000
     13      10.3721      2.00000
     14      11.9949      2.00000
     15      12.0347      2.00000
     16      15.2643      2.00000
     17      17.3115      0.30430
     18      20.3388      0.00000
     19      21.8863      0.00000
     20      24.6443      0.00000
     21      25.6419      0.00000
     22      27.3484      0.00000

 k-point    30 :       0.3750   -0.1250    0.3750
  band No.  band energies     occupation 
      1      -7.7167      2.00000
      2      -3.4018      2.00000
      3      -1.8764      2.00000
      4      -1.2182      2.00000
      5      -0.6065      2.00000
      6       1.3152      2.00000
      7       2.0471      2.00000
      8       2.3747      2.00000
      9       2.6073      2.00000
     10       4.1920      2.00000
     11       7.7668      2.00000
     12       8.9409      2.00000
     13      10.5718      2.00000
     14      13.5381      2.00000
     15      16.7657      2.00000
     16      18.4780      0.00000
     17      18.6029      0.00000
     18      21.7531      0.00000
     19      22.6215      0.00000
     20      23.2434      0.00000
     21      23.6452      0.00000
     22      26.2506      0.00000

 k-point    31 :      -0.3750   -0.1250    0.3750
  band No.  band energies     occupation 
      1      -6.5217      2.00000
      2      -5.4850      2.00000
      3      -3.1183      2.00000
      4      -0.0945      2.00000
      5       0.6257      2.00000
      6       1.0067      2.00000
      7       1.6030      2.00000
      8       2.3619      2.00000
      9       2.6065      2.00000
     10       5.3342      2.00000
     11       7.4955      2.00000
     12       9.7790      2.00000
     13      11.8698      2.00000
     14      13.2613      2.00000
     15      14.1387      2.00000
     16      17.3171      0.26809
     17      20.0066      0.00000
     18      20.0327      0.00000
     19      23.4980      0.00000
     20      24.1740      0.00000
     21      24.1787      0.00000
     22      24.2453      0.00000

 k-point    32 :      -0.1250   -0.1250    0.3750
  band No.  band energies     occupation 
      1      -8.2894      2.00000
      2      -3.7242      2.00000
      3      -2.5093      2.00000
      4      -1.4989      2.00000
      5      -0.5956      2.00000
      6       0.7164      2.00000
      7       4.4089      2.00000
      8       4.9548      2.00000
      9       6.2856      2.00000
     10       6.7358      2.00000
     11       7.5364      2.00000
     12       7.5852      2.00000
     13       8.5215      2.00000
     14       9.3398      2.00000
     15      13.8172      2.00000
     16      14.9470      2.00000
     17      16.8070      2.00000
     18      19.3129      0.00000
     19      21.8356      0.00000
     20      24.0324      0.00000
     21      27.7519      0.00000
     22      28.6194      0.00000


--------------------------------------------------------------------------------------------------------


 soft charge-density along one line, spin component           1
         0         1         2         3         4         5         6         7         8         9
 total charge-density along one line
 
 pseudopotential strength for first ion, spin component:           1
  9.155  12.150  -0.000   0.000  -0.002  -0.001  -0.000   0.006
 12.150  16.123  -0.000   0.000  -0.002  -0.002  -0.000   0.008
 -0.000  -0.000  -3.389  -0.001  -0.002   6.622   0.003   0.004
  0.000   0.000  -0.001  -3.386   0.003   0.003   6.616  -0.005
 -0.002  -0.002  -0.002   0.003  -3.392   0.004  -0.005   6.629
 -0.001  -0.002   6.622   0.003   0.004 -15.015  -0.007  -0.007
 -0.000  -0.000   0.003   6.616  -0.005  -0.007 -15.005   0.008
  0.006   0.008   0.004  -0.005   6.629  -0.007   0.008 -15.031
 total augmentation occupancy for first ion, spin component:           1
 10.074  -4.959   0.312   0.016  -0.123   0.050   0.005  -0.029
 -4.959   2.624  -0.180  -0.009   0.093  -0.027  -0.004   0.019
  0.312  -0.180   1.890  -0.068   0.014   0.171  -0.003   0.006
  0.016  -0.009  -0.068   1.750  -0.086  -0.003   0.135  -0.017
 -0.123   0.093   0.014  -0.086   1.783   0.006  -0.018   0.182
  0.050  -0.027   0.171  -0.003   0.006   0.019   0.001   0.001
  0.005  -0.004  -0.003   0.135  -0.018   0.001   0.016  -0.002
 -0.029   0.019   0.006  -0.017   0.182   0.001  -0.002   0.021


------------------------ aborting loop because EDIFF is reached ----------------------------------------


    CHARGE:  cpu time    0.0309: real time    0.0309
    FORLOC:  cpu time    0.0013: real time    0.0013
    FORNL :  cpu time    0.0815: real time    0.0815
    STRESS:  cpu time    0.2038: real time    0.2038
    FORCOR:  cpu time    0.0169: real time    0.0169
    FORHAR:  cpu time    0.0039: real time    0.0039
    MIXING:  cpu time    0.0005: real time    0.0005
    OFIELD:  cpu time    0.0000: real time    0.0000

  FORCE on cell =-STRESS in cart. coord.  units (eV):
  Direction    XX          YY          ZZ          XY          YZ          ZX
  --------------------------------------------------------------------------------------
  Alpha Z   162.51357   162.51357   162.51357
  Ewald    -488.44584  -510.43310  -590.19576    51.67559    24.17909   -93.34237
  Hartree    23.53347    23.95118    19.08086    11.84785     6.71762   -16.54599
  E(xc)    -129.42675  -129.74554  -130.04581     0.14822     0.21436    -0.30941
  Local     -44.18149   -26.61692    48.17682   -55.79136   -25.99245    97.09112
  n-local   -27.81768   -36.20823   -40.46940     0.67375     0.61243    -0.28299
  augment    -3.86897    -3.82080    -3.69601    -0.07076    -0.02030     0.10321
  Kinetic   513.69616   578.39263   635.45554   -10.64351    -2.40424    16.17701
  Fock        0.00000     0.00000     0.00000     0.00000     0.00000     0.00000
  -------------------------------------------------------------------------------------
  Total       6.00248    58.03281   100.81981    -2.16022     3.30650     2.89058
  in kB     297.27647  2874.11186  4993.16470  -106.98648   163.75655   143.15788
  external pressure =     2721.52 kB  Pullay stress =        0.00 kB


 VOLUME and BASIS-vectors are now :
 -----------------------------------------------------------------------------
  energy-cutoff  :      600.00
  volume of cell :       32.35
      direct lattice vectors                 reciprocal lattice vectors
    -0.847391729  2.941810492  1.191074460    -0.051082998  0.267517651  0.142498613
     3.665807395  1.171194211 -0.884602931     0.220588766  0.098386910 -0.086065609
    -1.198392875  0.874662924 -2.071636109    -0.123562783  0.111795740 -0.364030946

  length of vectors
     3.284962721  3.948716510  2.548108491     0.307377652  0.256411148  0.400355565


 FORCES acting on ions
    electron-ion (+dipol)            ewald-force                    non-local-force                 convergence-correction
 -----------------------------------------------------------------------------------------------
   -.118E+02 0.213E+02 0.442E+00   0.137E+02 -.219E+02 -.549E+00   -.197E+01 0.562E+00 0.107E+00   0.278E-03 -.525E-04 -.172E-04
   0.118E+02 -.213E+02 -.442E+00   -.137E+02 0.219E+02 0.549E+00   0.197E+01 -.562E+00 -.107E+00   -.278E-03 0.525E-04 0.172E-04
   -.118E+02 0.213E+02 0.442E+00   0.137E+02 -.219E+02 -.549E+00   -.197E+01 0.562E+00 0.107E+00   0.278E-03 -.525E-04 -.172E-04
   0.118E+02 -.213E+02 -.442E+00   -.137E+02 0.219E+02 0.549E+00   0.197E+01 -.562E+00 -.107E+00   -.278E-03 0.525E-04 0.172E-04
   -.118E+02 0.213E+02 0.442E+00   0.137E+02 -.219E+02 -.549E+00   -.197E+01 0.562E+00 0.107E+00   0.278E-03 -.525E-04 -.172E-04
   0.118E+02 -.213E+02 -.442E+00   -.137E+02 0.219E+02 0.549E+00   0.197E+01 -.562E+00 -.107E+00   -.278E-03 0.525E-04 0.172E-04
   -.118E+02 0.213E+02 0.442E+00   0.137E+02 -.219E+02 -.549E+00   -.197E+01 0.562E+00 0.107E+00   0.278E-03 -.525E-04 -.172E-04
   0.118E+02 -.213E+02 -.442E+00   -.137E+02 0.219E+02 0.549E+00   0.197E+01 -.562E+00 -.107E+00   -.278E-03 0.525E-04 0.172E-04
 -----------------------------------------------------------------------------------------------
   0.459E-12 -.618E-12 0.944E-12   -.142E-13 -.355E-14 -.966E-14   0.666E-15 -.444E-15 0.416E-16   0.174E-14 -.132E-13 0.254E-13
 
 
 POSITION                                       TOTAL-FORCE (eV/Angst)
 -----------------------------------------------------------------------------------
     -0.34839      1.05317     -1.25633        -0.001506     -0.005769      0.000249
     -0.03999      2.31533     -1.69788         0.001506      0.005769     -0.000249
      2.08371      1.20143     -0.66282        -0.001506     -0.005769      0.000249
      2.39211      2.46359     -1.10437         0.001506      0.005769     -0.000249
     -0.17289      2.08674      0.37502        -0.001506     -0.005769      0.000249
      0.13551      3.34890     -0.06653         0.001506      0.005769     -0.000249
      1.06082      3.10967     -1.10310        -0.001506     -0.005769      0.000249
      1.36922      4.37183     -1.54465         0.001506      0.005769     -0.000249
 -----------------------------------------------------------------------------------
    total drift:                                0.000000     -0.000000      0.000000


--------------------------------------------------------------------------------------------------------



  FREE ENERGIE OF THE ION-ELECTRON SYSTEM (eV)
  ---------------------------------------------------
  free  energy   TOTEN  =       -49.16832743 eV

  energy  without entropy=      -49.15751972  energy(sigma->0) =      -49.16292357
 
 d Force = 0.1473954E-04[-0.303E-06, 0.298E-04]  d Energy = 0.1501290E-04-0.273E-06
 d Force = 0.2212379E-01[ 0.221E-01, 0.221E-01]  d Ewald  = 0.2212379E-01-0.765E-09


--------------------------------------------------------------------------------------------------------


    POTLOK:  cpu time    0.0175: real time    0.0175


--------------------------------------------------------------------------------------------------------




--------------------------------------------------------------------------------------------------------


  
 reached required accuracy - stopping structural energy minimisation
     LOOP+:  cpu time    1.4521: real time    1.4521
    4ORBIT:  cpu time    0.0000: real time    0.0000

 total amount of memory used by VASP MPI-rank0    45783. kBytes
=======================================================================

   base      :      30000. kBytes
   nonl-proj :       2371. kBytes
   fftplans  :       2603. kBytes
   grid      :       4286. kBytes
   one-center:         24. kBytes
   wavefun   :       6499. kBytes
 
  
  
 General timing and accounting informations for this job:
 ========================================================
  
                  Total CPU time used (sec):       31.044
                            User time (sec):       30.668
                          System time (sec):        0.376
                         Elapsed time (sec):       31.425
  
                   Maximum memory used (kb):      127512.
                   Average memory used (kb):          N/A
  
                          Minor page faults:        38803
                          Major page faults:            0
                 Voluntary context switches:          595
