<?xml version="1.0" encoding="ISO-8859-1"?>
<modeling>
 <generator>
  <i name="program" type="string">vasp </i>
  <i name="version" type="string">6.2.1  </i>
  <i name="subversion" type="string">16May21 (build Oct 21 2023 21:03:18) complex                          parallel </i>
  <i name="platform" type="string">LinuxIFC </i>
  <i name="date" type="string">2024 05 29 </i>
  <i name="time" type="string">15:03:30 </i>
 </generator>
 <incar>
  <i type="int" name="ISTART">     0</i>
  <i type="string" name="PREC">accurate</i>
  <i type="int" name="IBRION">     2</i>
  <i name="EDIFF">      0.00000100</i>
  <i name="EDIFFG">      0.00001000</i>
  <i type="int" name="NSW">   300</i>
  <i type="int" name="ISIF">     2</i>
  <i type="int" name="ISYM">     2</i>
  <i name="ENCUT">    600.00000000</i>
  <i type="logical" name="LREAL"> F  </i>
  <i type="logical" name="LPLANE"> F  </i>
  <i type="int" name="ISMEAR">     0</i>
  <i name="SIGMA">      0.10000000</i>
  <i type="logical" name="LWAVE"> F  </i>
  <i type="logical" name="LCHARG"> F  </i>
 </incar>
 <primitive_cell>
  <structure name="primitive_cell" >
   <crystal>
    <varray name="basis" >
     <v>       1.58470841       3.09007613       1.78459105 </v>
     <v>       0.38631553       3.96473906      -0.28704506 </v>
     <v>       1.37389345       0.15891086       3.70299139 </v>
    </varray>
    <i name="volume">      8.08761665 </i>
    <varray name="rec_basis" >
     <v>       1.82093314      -0.22564032      -0.66592416 </v>
     <v>      -1.37975561       0.42241414       0.49379294 </v>
     <v>      -0.98452106       0.14148766       0.62925966 </v>
    </varray>
   </crystal>
   <varray name="positions" >
    <v>       0.87500000       0.37500000       0.75000000 </v>
    <v>       0.62500000       0.12500000       0.25000000 </v>
   </varray>
  </structure>
  <varray name="primitive_index" >
   <v type="int" >        1 </v>
   <v type="int" >        2 </v>
  </varray>
 </primitive_cell>
 <kpoints>
  <generation param="Monkhorst-Pack">
   <v type="int" name="divisions">       4        4        4 </v>
   <v name="usershift">      0.00000000       0.00000000       0.00000000 </v>
   <v name="genvec1">      0.25000000       0.00000000       0.00000000 </v>
   <v name="genvec2">     -0.00000000       0.25000000       0.00000000 </v>
   <v name="genvec3">      0.00000000      -0.00000000       0.25000000 </v>
   <v name="shift">      0.50000000       0.50000000       0.50000000 </v>
  </generation>
  <varray name="kpointlist" >
   <v>       0.12500000       0.12500000       0.12500000 </v>
   <v>       0.37500000       0.12500000       0.12500000 </v>
   <v>      -0.37500000       0.12500000       0.12500000 </v>
   <v>      -0.12500000       0.12500000       0.12500000 </v>
   <v>       0.12500000       0.37500000       0.12500000 </v>
   <v>       0.37500000       0.37500000       0.12500000 </v>
   <v>      -0.37500000       0.37500000       0.12500000 </v>
   <v>      -0.12500000       0.37500000       0.12500000 </v>
   <v>       0.12500000      -0.37500000       0.12500000 </v>
   <v>       0.37500000      -0.37500000       0.12500000 </v>
   <v>      -0.37500000      -0.37500000       0.12500000 </v>
   <v>      -0.12500000      -0.37500000       0.12500000 </v>
   <v>       0.12500000      -0.12500000       0.12500000 </v>
   <v>       0.37500000      -0.12500000       0.12500000 </v>
   <v>      -0.37500000      -0.12500000       0.12500000 </v>
   <v>      -0.12500000      -0.12500000       0.12500000 </v>
   <v>       0.12500000       0.12500000       0.37500000 </v>
   <v>       0.37500000       0.12500000       0.37500000 </v>
   <v>      -0.37500000       0.12500000       0.37500000 </v>
   <v>      -0.12500000       0.12500000       0.37500000 </v>
   <v>       0.12500000       0.37500000       0.37500000 </v>
   <v>       0.37500000       0.37500000       0.37500000 </v>
   <v>      -0.37500000       0.37500000       0.37500000 </v>
   <v>      -0.12500000       0.37500000       0.37500000 </v>
   <v>       0.12500000      -0.37500000       0.37500000 </v>
   <v>       0.37500000      -0.37500000       0.37500000 </v>
   <v>      -0.37500000      -0.37500000       0.37500000 </v>
   <v>      -0.12500000      -0.37500000       0.37500000 </v>
   <v>       0.12500000      -0.12500000       0.37500000 </v>
   <v>       0.37500000      -0.12500000       0.37500000 </v>
   <v>      -0.37500000      -0.12500000       0.37500000 </v>
   <v>      -0.12500000      -0.12500000       0.37500000 </v>
  </varray>
  <varray name="weights" >
   <v>       0.03125000 </v>
   <v>       0.03125000 </v>
   <v>       0.03125000 </v>
   <v>       0.03125000 </v>
   <v>       0.03125000 </v>
   <v>       0.03125000 </v>
   <v>       0.03125000 </v>
   <v>       0.03125000 </v>
   <v>       0.03125000 </v>
   <v>       0.03125000 </v>
   <v>       0.03125000 </v>
   <v>       0.03125000 </v>
   <v>       0.03125000 </v>
   <v>       0.03125000 </v>
   <v>       0.03125000 </v>
   <v>       0.03125000 </v>
   <v>       0.03125000 </v>
   <v>       0.03125000 </v>
   <v>       0.03125000 </v>
   <v>       0.03125000 </v>
   <v>       0.03125000 </v>
   <v>       0.03125000 </v>
   <v>       0.03125000 </v>
   <v>       0.03125000 </v>
   <v>       0.03125000 </v>
   <v>       0.03125000 </v>
   <v>       0.03125000 </v>
   <v>       0.03125000 </v>
   <v>       0.03125000 </v>
   <v>       0.03125000 </v>
   <v>       0.03125000 </v>
   <v>       0.03125000 </v>
  </varray>
 </kpoints>
 <parameters>
  <separator name="general" >
   <i type="string" name="SYSTEM">unknown system</i>
   <i type="logical" name="LCOMPAT"> F  </i>
  </separator>
  <separator name="electronic" >
   <i type="string" name="PREC">accura</i>
   <i name="ENMAX">    600.00000000</i>
   <i name="ENAUG">    644.87300000</i>
   <i name="EDIFF">      0.00000100</i>
   <i type="int" name="IALGO">    38</i>
   <i type="int" name="IWAVPR">    11</i>
   <i type="int" name="NBANDS">    22</i>
   <i type="int" name="NBANDSLOW">    -1</i>
   <i type="int" name="NBANDSHIGH">    -1</i>
   <i name="NELECT">     32.00000000</i>
   <i type="int" name="TURBO">     0</i>
   <i type="int" name="IRESTART">     0</i>
   <i type="int" name="NREBOOT">     0</i>
   <i type="int" name="NMIN">     0</i>
   <i name="EREF">      0.00000000</i>
   <separator name="electronic smearing" >
    <i type="int" name="ISMEAR">     0</i>
    <i name="SIGMA">      0.10000000</i>
    <i name="KSPACING">      0.50000000</i>
    <i type="logical" name="KGAMMA"> T  </i>
    <i type="logical" name="KBLOWUP"> T  </i>
   </separator>
   <separator name="electronic projectors" >
    <i type="logical" name="LREAL"> F  </i>
    <v name="ROPT">      0.00000000</v>
    <i type="int" name="LMAXPAW">  -100</i>
    <i type="int" name="LMAXMIX">     2</i>
    <i type="logical" name="NLSPLINE"> F  </i>
   </separator>
   <separator name="electronic startup" >
    <i type="int" name="ISTART">     0</i>
    <i type="int" name="ICHARG">     2</i>
    <i type="int" name="INIWAV">     1</i>
   </separator>
   <separator name="electronic spin" >
    <i type="int" name="ISPIN">     1</i>
    <i type="logical" name="LNONCOLLINEAR"> F  </i>
    <v name="MAGMOM">      1.00000000      1.00000000      1.00000000      1.00000000      1.00000000      1.00000000      1.00000000      1.00000000</v>
    <i name="NUPDOWN">     -1.00000000</i>
    <i type="logical" name="LSORBIT"> F  </i>
    <v name="SAXIS">      0.00000000      0.00000000      1.00000000</v>
    <i type="logical" name="LSPIRAL"> F  </i>
    <v name="QSPIRAL">      0.00000000      0.00000000      0.00000000</v>
    <i type="logical" name="LZEROZ"> F  </i>
   </separator>
   <separator name="electronic exchange-correlation" >
    <i type="logical" name="LASPH"> F  </i>
    <i type="logical" name="LMETAGGA"> F  </i>
   </separator>
   <separator name="electronic convergence" >
    <i type="int" name="NELM">    60</i>
    <i type="int" name="NELMDL">    -5</i>
    <i type="int" name="NELMIN">     2</i>
    <i name="ENINI">    600.00000000</i>
    <separator name="electronic convergence detail" >
     <i type="logical" name="LDIAG"> T  </i>
     <i type="logical" name="LSUBROT"> F  </i>
     <i name="WEIMIN">      0.00100000</i>
     <i name="EBREAK">      0.00000001</i>
     <i name="DEPER">      0.30000000</i>
     <i type="int" name="NRMM">     4</i>
     <i name="TIME">      0.40000000</i>
    </separator>
   </separator>
   <separator name="electronic mixer" >
    <i name="AMIX">      0.40000000</i>
    <i name="BMIX">      1.00000000</i>
    <i name="AMIN">      0.10000000</i>
    <i name="AMIX_MAG">      1.60000000</i>
    <i name="BMIX_MAG">      1.00000000</i>
    <separator name="electronic mixer details" >
     <i type="int" name="IMIX">     4</i>
     <i type="logical" name="MIXFIRST"> F  </i>
     <i type="int" name="MAXMIX">   -45</i>
     <i name="WC">    100.00000000</i>
     <i type="int" name="INIMIX">     1</i>
     <i type="int" name="MIXPRE">     1</i>
     <i type="int" name="MREMOVE">     5</i>
    </separator>
   </separator>
   <separator name="electronic dipolcorrection" >
    <i type="logical" name="LDIPOL"> F  </i>
    <i type="logical" name="LMONO"> F  </i>
    <i type="int" name="IDIPOL">     0</i>
    <i name="EPSILON">      1.00000000</i>
    <v name="DIPOL">   -100.00000000   -100.00000000   -100.00000000</v>
    <i name="EFIELD">      0.00000000</i>
   </separator>
  </separator>
  <separator name="grids" >
   <i type="int" name="NGX">    28</i>
   <i type="int" name="NGY">    32</i>
   <i type="int" name="NGZ">    20</i>
   <i type="int" name="NGXF">    56</i>
   <i type="int" name="NGYF">    64</i>
   <i type="int" name="NGZF">    40</i>
   <i type="logical" name="ADDGRID"> F  </i>
  </separator>
  <separator name="ionic" >
   <i type="int" name="NSW">   300</i>
   <i type="int" name="IBRION">     2</i>
   <i type="int" name="MDALGO">     0</i>
   <i type="int" name="ISIF">     2</i>
   <i name="PSTRESS">      0.00000000</i>
   <i name="EDIFFG">      0.00001000</i>
   <i type="int" name="NFREE">     1</i>
   <i name="POTIM">      0.50000000</i>
   <i name="SMASS">     -3.00000000</i>
   <i name="SCALEE">      1.00000000</i>
  </separator>
  <separator name="ionic md" >
   <i name="TEBEG">      0.00010000</i>
   <i name="TEEND">      0.00010000</i>
   <i type="int" name="NBLOCK">     1</i>
   <i type="int" name="KBLOCK">   300</i>
   <i type="int" name="NPACO">   256</i>
   <i name="APACO">     16.00000000</i>
  </separator>
  <separator name="symmetry" >
   <i type="int" name="ISYM">     2</i>
   <i name="SYMPREC">      0.00001000</i>
  </separator>
  <separator name="dos" >
   <i type="int" name="LORBIT">     0</i>
   <v name="RWIGS">     -1.00000000</v>
   <i type="int" name="NEDOS">   301</i>
   <i name="EMIN">     10.00000000</i>
   <i name="EMAX">    -10.00000000</i>
   <i name="EFERMI">      0.00000000</i>
  </separator>
  <separator name="writing" >
   <i type="int" name="NWRITE">     2</i>
   <i type="logical" name="LWAVE"> F  </i>
   <i type="logical" name="LDOWNSAMPLE"> F  </i>
   <i type="logical" name="LCHARG"> F  </i>
   <i type="logical" name="LPARD"> F  </i>
   <i type="logical" name="LVTOT"> F  </i>
   <i type="logical" name="LVHAR"> F  </i>
   <i type="logical" name="LELF"> F  </i>
   <i type="logical" name="LOPTICS"> F  </i>
   <v name="STM">      0.00000000      0.00000000      0.00000000      0.00000000      0.00000000      0.00000000      0.00000000</v>
  </separator>
  <separator name="performance" >
   <i type="int" name="NPAR">     2</i>
   <i type="int" name="NSIM">     4</i>
   <i type="int" name="NBLK">    -1</i>
   <i type="logical" name="LPLANE"> F  </i>
   <i type="logical" name="LSCALAPACK"> T  </i>
   <i type="logical" name="LSCAAWARE"> F  </i>
   <i type="logical" name="LSCALU"> F  </i>
   <i type="logical" name="LASYNC"> F  </i>
   <i type="logical" name="LORBITALREAL"> F  </i>
  </separator>
  <separator name="miscellaneous" >
   <i type="int" name="IDIOT">     3</i>
   <i type="int" name="PHON_NSTRUCT">    -1</i>
   <i type="logical" name="LMUSIC"> F  </i>
   <v name="POMASS">     12.01100000</v>
   <v name="DARWINR">      0.00000000</v>
   <v name="DARWINV">      1.00000000</v>
   <i type="logical" name="LCORR"> T  </i>
  </separator>
  <i type="logical" name="GGA_COMPAT"> T  </i>
  <i type="logical" name="LBERRY"> F  </i>
  <i type="int" name="ICORELEVEL">     0</i>
  <i type="logical" name="LDAU"> F  </i>
  <i type="int" name="I_CONSTRAINED_M">     0</i>
  <separator name="electronic exchange-correlation" >
   <i type="string" name="GGA">--</i>
   <i type="int" name="VOSKOWN">     0</i>
   <i type="logical" name="LHFCALC"> F  </i>
   <i type="string" name="PRECFOCK"></i>
   <i type="logical" name="LSYMGRAD"> F  </i>
   <i type="logical" name="LHFONE"> F  </i>
   <i type="logical" name="LRHFCALC"> F  </i>
   <i type="logical" name="LTHOMAS"> F  </i>
   <i type="logical" name="LMODELHF"> F  </i>
   <i type="logical" name="LFOCKACE"> F  </i>
   <i name="ENCUT4O">     -1.00000000</i>
   <i type="int" name="EXXOEP">     0</i>
   <i type="int" name="FOURORBIT">     0</i>
   <i name="AEXX">      0.00000000</i>
   <i name="HFALPHA">      0.00000000</i>
   <i name="MCALPHA">      0.00000000</i>
   <i name="ALDAX">      1.00000000</i>
   <i name="AGGAX">      1.00000000</i>
   <i name="ALDAC">      1.00000000</i>
   <i name="AGGAC">      1.00000000</i>
   <i type="int" name="NKREDX">     1</i>
   <i type="int" name="NKREDY">     1</i>
   <i type="int" name="NKREDZ">     1</i>
   <i type="logical" name="SHIFTRED"> F  </i>
   <i type="logical" name="ODDONLY"> F  </i>
   <i type="logical" name="EVENONLY"> F  </i>
   <i type="int" name="LMAXFOCK">     0</i>
   <i type="int" name="NMAXFOCKAE">     0</i>
   <i type="logical" name="LFOCKAEDFT"> F  </i>
   <i name="HFSCREEN">      0.00000000</i>
   <i name="HFSCREENC">      0.00000000</i>
   <i type="int" name="NBANDSGWLOW">     0</i>
  </separator>
  <separator name="vdW DFT" >
   <i type="logical" name="LUSE_VDW"> F  </i>
   <i name="Zab_VDW">     -0.84910000</i>
   <i name="PARAM1">      0.12340000</i>
   <i name="PARAM2">      1.00000000</i>
   <i name="PARAM3">      0.00000000</i>
  </separator>
  <separator name="model GW" >
   <i type="int" name="MODEL_GW">     0</i>
   <i name="MODEL_EPS0">      2.42628499</i>
   <i name="MODEL_ALPHA">      1.00000000</i>
  </separator>
  <separator name="linear response parameters" >
   <i type="logical" name="LEPSILON"> F  </i>
   <i type="logical" name="LRPA"> F  </i>
   <i type="logical" name="LNABLA"> F  </i>
   <i type="logical" name="LVEL"> F  </i>
   <i type="int" name="KINTER">     0</i>
   <i name="CSHIFT">      0.10000000</i>
   <i name="OMEGAMAX">     -1.00000000</i>
   <i name="DEG_THRESHOLD">      0.00200000</i>
   <i name="RTIME">     -0.10000000</i>
   <i name="WPLASMAI">      0.00000000</i>
   <v name="DFIELD">      0.00000000      0.00000000      0.00000000</v>
   <v name="WPLASMA">      0.00000000      0.00000000      0.00000000      0.00000000      0.00000000      0.00000000      0.00000000      0.00000000      0.00000000</v>
  </separator>
  <separator name="orbital magnetization" >
   <i type="logical" name="NUCIND"> F  </i>
   <v name="MAGPOS">      0.00000000      0.00000000      0.00000000</v>
   <i type="logical" name="LNICSALL"> T  </i>
   <i type="logical" name="ORBITALMAG"> F  </i>
   <i type="logical" name="LMAGBLOCH"> F  </i>
   <i type="logical" name="LCHIMAG"> F  </i>
   <i type="logical" name="LGAUGE"> T  </i>
   <i type="int" name="MAGATOM">     0</i>
   <v name="MAGDIPOL">      0.00000000      0.00000000      0.00000000</v>
   <v name="AVECCONST">      0.00000000      0.00000000      0.00000000</v>
  </separator>
  <separator name="response functions" >
   <i type="logical" name="LFINITE_TEMPERATURE"> F  </i>
   <i type="logical" name="LADDER"> F  </i>
   <i type="logical" name="LRPAFORCE"> F  </i>
   <i type="logical" name="LFXC"> F  </i>
   <i type="logical" name="LHARTREE"> T  </i>
   <i type="int" name="IBSE">     0</i>
   <v type="int" name="KPOINT">    -1     0     0     0</v>
   <i type="logical" name="LTCTC"> F  </i>
   <i type="logical" name="LTCTE"> F  </i>
   <i type="logical" name="LTETE"> F  </i>
   <i type="logical" name="LTRIPLET"> F  </i>
   <i type="logical" name="LFXCEPS"> F  </i>
   <i type="logical" name="LFXHEG"> F  </i>
   <i type="int" name="NATURALO">     2</i>
   <i type="logical" name="LHOLEGF"> F  </i>
   <i type="logical" name="L2ORDER"> F  </i>
   <i type="logical" name="LDMP1"> F  </i>
   <i type="logical" name="LMP2LT"> F  </i>
   <i type="logical" name="LSMP2LT"> F  </i>
   <i type="logical" name="LGWLF"> F  </i>
   <i name="ENCUTGW">     -2.00000000</i>
   <i name="ENCUTGWSOFT">     -2.00000000</i>
   <i name="ENCUTLF">     -1.00000000</i>
   <i type="logical" name="LESF_SPLINES"> F  </i>
   <i type="int" name="LMAXMP2">    -1</i>
   <i name="SCISSOR">      0.00000000</i>
   <i type="int" name="NOMEGA">     0</i>
   <i type="int" name="NOMEGAR">     0</i>
   <i type="int" name="NBANDSGW">    -1</i>
   <i type="int" name="NBANDSO">    -1</i>
   <i type="int" name="NBANDSV">    -1</i>
   <i type="int" name="NELM">     1</i>
   <i type="int" name="NELMHF">     1</i>
   <i type="int" name="DIM">     3</i>
   <i type="int" name="IESPILON">     4</i>
   <i type="int" name="ANTIRES">     0</i>
   <i name="OMEGAMAX">    -30.00000000</i>
   <i name="OMEGAMIN">    -30.00000000</i>
   <i name="OMEGATL">   -200.00000000</i>
   <i type="int" name="OMEGAGRID">     0</i>
   <i name="CSHIFT">     -0.10000000</i>
   <i type="logical" name="LSELFENERGY"> F  </i>
   <i type="logical" name="LSPECTRAL"> F  </i>
   <i type="logical" name="LSPECTRALGW"> F  </i>
   <i type="logical" name="LSINGLES"> F  </i>
   <i type="logical" name="LFERMIGW"> F  </i>
   <i type="logical" name="ODDONLYGW"> F  </i>
   <i type="logical" name="EVENONLYGW"> F  </i>
   <i type="int" name="NKREDLFX">     1</i>
   <i type="int" name="NKREDLFY">     1</i>
   <i type="int" name="NKREDLFZ">     1</i>
   <i type="int" name="MAXMEM">  2800</i>
   <i type="int" name="TELESCOPE">     0</i>
   <i type="int" name="NTAUPAR">    -1</i>
   <i type="int" name="NOMEGAPAR">    -1</i>
   <i name="DAMP_NEWTON">      0.80000001</i>
   <i name="LAMBDA">      1.00000000</i>
  </separator>
  <separator name="External order field" >
   <i name="OFIELD_KAPPA">      0.00000000</i>
   <v name="OFIELD_K">      0.00000000      0.00000000      0.00000000</v>
   <i name="OFIELD_Q6_NEAR">      0.00000000</i>
   <i name="OFIELD_Q6_FAR">      0.00000000</i>
   <i name="OFIELD_A">      0.00000000</i>
  </separator>
 </parameters>
 <atominfo>
  <atoms>       8 </atoms>
  <types>       1 </types>
  <array name="atoms" >
   <dimension dim="1">ion</dimension>
   <field type="string">element</field>
   <field type="int">atomtype</field>
   <set>
    <rc><c>C </c><c>   1</c></rc>
    <rc><c>C </c><c>   1</c></rc>
    <rc><c>C </c><c>   1</c></rc>
    <rc><c>C </c><c>   1</c></rc>
    <rc><c>C </c><c>   1</c></rc>
    <rc><c>C </c><c>   1</c></rc>
    <rc><c>C </c><c>   1</c></rc>
    <rc><c>C </c><c>   1</c></rc>
   </set>
  </array>
  <array name="atomtypes" >
   <dimension dim="1">type</dimension>
   <field type="int">atomspertype</field>
   <field type="string">element</field>
   <field>mass</field>
   <field>valence</field>
   <field type="string">pseudopotential</field>
   <set>
    <rc><c>   8</c><c>C </c><c>     12.01100000</c><c>      4.00000000</c><c>  PAW_PBE C 08Apr2002                   </c></rc>
   </set>
  </array>
 </atominfo>
 <structure name="initialpos" >
  <crystal>
   <varray name="basis" >
    <v>      -0.84739173       2.94181049       1.19107446 </v>
    <v>       3.66580739       1.17119421      -0.88460293 </v>
    <v>      -1.19839288       0.87466292      -2.07163611 </v>
   </varray>
   <i name="volume">     32.35046659 </i>
   <varray name="rec_basis" >
    <v>      -0.05108300       0.26751765       0.14249861 </v>
    <v>       0.22058877       0.09838691      -0.08606561 </v>
    <v>      -0.12356278       0.11179574      -0.36403095 </v>
   </varray>
  </crystal>
  <varray name="positions" >
   <v>       0.12500000       0.12500000       0.62500000 </v>
   <v>       0.37500000       0.37500000       0.87500000 </v>
   <v>       0.12500000       0.62500000       0.12500000 </v>
   <v>       0.37500000       0.87500000       0.37500000 </v>
   <v>       0.62500000       0.12500000       0.12500000 </v>
   <v>       0.87500000       0.37500000       0.37500000 </v>
   <v>       0.62500000       0.62500000       0.62500000 </v>
   <v>       0.87500000       0.87500000       0.87500000 </v>
  </varray>
  <varray name="selective"  type="logical" >
   <v type="logical" >  T  T  T </v>
   <v type="logical" >  T  T  T </v>
   <v type="logical" >  T  T  T </v>
   <v type="logical" >  T  T  T </v>
   <v type="logical" >  T  T  T </v>
   <v type="logical" >  T  T  T </v>
   <v type="logical" >  T  T  T </v>
   <v type="logical" >  T  T  T </v>
  </varray>
  <nose>
   <v>      -3.00000000       0.00000000       0.00010000       0.00010000 </v>
  </nose>
 </structure>
 <calculation>
  <scstep>
   <time name="dav">    0.37    0.37</time>
   <time name="total">    0.39    0.39</time>
   <energy>
    <i name="alphaZ">    162.51357025 </i>
    <i name="ewald">  -1579.37806372 </i>
    <i name="hartreedc">    -38.97680006 </i>
    <i name="XCdc">    118.67677442 </i>
    <i name="pawpsdc">    868.17637104 </i>
    <i name="pawaedc">   -872.73161751 </i>
    <i name="eentropy">     -0.00443209 </i>
    <i name="bandstr">    284.12821919 </i>
    <i name="atom">   1177.20230207 </i>
    <i name="e_fr_energy">    119.60632359 </i>
    <i name="e_wo_entrp">    119.61075568 </i>
    <i name="e_0_energy">    119.60853964 </i>
   </energy>
  </scstep>
  <scstep>
   <time name="dav">    0.46    0.46</time>
   <time name="total">    0.46    0.46</time>
   <energy>
    <i name="e_fr_energy">    -47.19416723 </i>
    <i name="e_wo_entrp">    -47.18795122 </i>
    <i name="e_0_energy">    -47.19105922 </i>
   </energy>
  </scstep>
  <scstep>
   <time name="dav">    0.38    0.38</time>
   <time name="total">    0.38    0.38</time>
   <energy>
    <i name="e_fr_energy">    -53.10598269 </i>
    <i name="e_wo_entrp">    -53.09942926 </i>
    <i name="e_0_energy">    -53.10270598 </i>
   </energy>
  </scstep>
  <scstep>
   <time name="dav">    0.35    0.35</time>
   <time name="total">    0.36    0.36</time>
   <energy>
    <i name="e_fr_energy">    -53.16425090 </i>
    <i name="e_wo_entrp">    -53.15765150 </i>
    <i name="e_0_energy">    -53.16095120 </i>
   </energy>
  </scstep>
  <scstep>
   <time name="dav">    0.37    0.38</time>
   <time name="total">    0.41    0.41</time>
   <energy>
    <i name="e_fr_energy">    -53.16539370 </i>
    <i name="e_wo_entrp">    -53.15879349 </i>
    <i name="e_0_energy">    -53.16209360 </i>
   </energy>
  </scstep>
  <scstep>
   <time name="dav">    0.32    0.32</time>
   <time name="total">    0.37    0.37</time>
   <energy>
    <i name="e_fr_energy">    -49.76028855 </i>
    <i name="e_wo_entrp">    -49.75238362 </i>
    <i name="e_0_energy">    -49.75633609 </i>
   </energy>
  </scstep>
  <scstep>
   <time name="dav">    0.42    0.42</time>
   <time name="total">    0.47    0.47</time>
   <energy>
    <i name="e_fr_energy">    -48.72537991 </i>
    <i name="e_wo_entrp">    -48.71997353 </i>
    <i name="e_0_energy">    -48.72267672 </i>
   </energy>
  </scstep>
  <scstep>
   <time name="dav">    0.52    0.52</time>
   <time name="total">    0.58    0.58</time>
   <energy>
    <i name="e_fr_energy">    -48.72944105 </i>
    <i name="e_wo_entrp">    -48.72420150 </i>
    <i name="e_0_energy">    -48.72682128 </i>
   </energy>
  </scstep>
  <scstep>
   <time name="dav">    0.54    0.54</time>
   <time name="total">    0.61    0.61</time>
   <energy>
    <i name="e_fr_energy">    -48.72940611 </i>
    <i name="e_wo_entrp">    -48.72413497 </i>
    <i name="e_0_energy">    -48.72677054 </i>
   </energy>
  </scstep>
  <scstep>
   <time name="dav">    0.54    0.54</time>
   <time name="total">    0.60    0.60</time>
   <energy>
    <i name="e_fr_energy">    -48.72941410 </i>
    <i name="e_wo_entrp">    -48.72411877 </i>
    <i name="e_0_energy">    -48.72676643 </i>
   </energy>
  </scstep>
  <scstep>
   <time name="dav">    0.40    0.40</time>
   <time name="total">    0.45    0.45</time>
   <energy>
    <i name="e_fr_energy">    -48.72941539 </i>
    <i name="e_wo_entrp">    -48.72412209 </i>
    <i name="e_0_energy">    -48.72676874 </i>
   </energy>
  </scstep>
  <scstep>
   <time name="dav">    0.28    0.28</time>
   <time name="total">    0.30    0.30</time>
   <energy>
    <i name="alphaZ">    162.51357025 </i>
    <i name="ewald">  -1579.37806372 </i>
    <i name="hartreedc">    -72.19364848 </i>
    <i name="XCdc">    121.75009340 </i>
    <i name="pawpsdc">   4607.55887444 </i>
    <i name="pawaedc">  -4613.59055901 </i>
    <i name="eentropy">     -0.00529245 </i>
    <i name="bandstr">    147.41330743 </i>
    <i name="atom">   1177.20230207 </i>
    <i name="e_fr_energy">    -48.72941608 </i>
    <i name="e_wo_entrp">    -48.72412363 </i>
    <i name="e_0_energy">    -48.72676986 </i>
   </energy>
  </scstep>
  <structure>
   <crystal>
    <varray name="basis" >
     <v>      -0.84739173       2.94181049       1.19107446 </v>
     <v>       3.66580739       1.17119421      -0.88460293 </v>
     <v>      -1.19839288       0.87466292      -2.07163611 </v>
    </varray>
    <i name="volume">     32.35046659 </i>
    <varray name="rec_basis" >
     <v>      -0.05108300       0.26751765       0.14249861 </v>
     <v>       0.22058877       0.09838691      -0.08606561 </v>
     <v>      -0.12356278       0.11179574      -0.36403095 </v>
    </varray>
   </crystal>
   <varray name="positions" >
    <v>       0.12500000       0.12500000       0.62500000 </v>
    <v>       0.37500000       0.37500000       0.87500000 </v>
    <v>       0.12500000       0.62500000       0.12500000 </v>
    <v>       0.37500000       0.87500000       0.37500000 </v>
    <v>       0.62500000       0.12500000       0.12500000 </v>
    <v>       0.87500000       0.37500000       0.37500000 </v>
    <v>       0.62500000       0.62500000       0.62500000 </v>
    <v>       0.87500000       0.87500000       0.87500000 </v>
   </varray>
  </structure>
  <varray name="forces" >
   <v>       2.18495345      -0.75321842      -0.39453522 </v>
   <v>      -2.18495345       0.75321842       0.39453522 </v>
   <v>       2.18495345      -0.75321842      -0.39453522 </v>
   <v>      -2.18495345       0.75321842       0.39453522 </v>
   <v>       2.18495345      -0.75321842      -0.39453522 </v>
   <v>      -2.18495345       0.75321842       0.39453522 </v>
   <v>       2.18495345      -0.75321842      -0.39453522 </v>
   <v>      -2.18495345       0.75321842       0.39453522 </v>
  </varray>
  <varray name="stress" >
   <v>     310.57858720    -233.46543069      10.02167676 </v>
   <v>    -233.46543015    2838.99297301     355.43823024 </v>
   <v>      10.02167712     355.43823045    5460.91441088 </v>
  </varray>
  <energy>
   <i name="e_fr_energy">    -48.72941608 </i>
   <i name="e_wo_entrp">    -48.72412363 </i>
   <i name="e_0_energy">    -48.72676986 </i>
  </energy>
  <time name="totalsc">    5.71    5.72</time>
 </calculation>
 <calculation>
  <scstep>
   <time name="dav">    0.35    0.35</time>
   <time name="total">    0.40    0.40</time>
   <energy>
    <i name="alphaZ">    162.51357025 </i>
    <i name="ewald">  -1594.08858981 </i>
    <i name="hartreedc">    -63.72510405 </i>
    <i name="XCdc">    121.24392517 </i>
    <i name="pawpsdc">   4608.02005994 </i>
    <i name="pawaedc">  -4614.05170767 </i>
    <i name="eentropy">     -0.00710939 </i>
    <i name="bandstr">    154.58703211 </i>
    <i name="atom">   1177.20230207 </i>
    <i name="e_fr_energy">    -48.30562138 </i>
    <i name="e_wo_entrp">    -48.29851200 </i>
    <i name="e_0_energy">    -48.30206669 </i>
   </energy>
  </scstep>
  <scstep>
   <time name="dav">    0.39    0.39</time>
   <time name="total">    0.44    0.44</time>
   <energy>
    <i name="e_fr_energy">    -48.29337744 </i>
    <i name="e_wo_entrp">    -48.28712081 </i>
    <i name="e_0_energy">    -48.29024912 </i>
   </energy>
  </scstep>
  <scstep>
   <time name="dav">    0.46    0.46</time>
   <time name="total">    0.52    0.52</time>
   <energy>
    <i name="e_fr_energy">    -48.08172752 </i>
    <i name="e_wo_entrp">    -48.07651910 </i>
    <i name="e_0_energy">    -48.07912331 </i>
   </energy>
  </scstep>
  <scstep>
   <time name="dav">    0.50    0.50</time>
   <time name="total">    0.57    0.57</time>
   <energy>
    <i name="e_fr_energy">    -48.04327543 </i>
    <i name="e_wo_entrp">    -48.03873637 </i>
    <i name="e_0_energy">    -48.04100590 </i>
   </energy>
  </scstep>
  <scstep>
   <time name="dav">    0.51    0.51</time>
   <time name="total">    0.58    0.58</time>
   <energy>
    <i name="e_fr_energy">    -48.04428359 </i>
    <i name="e_wo_entrp">    -48.03977495 </i>
    <i name="e_0_energy">    -48.04202927 </i>
   </energy>
  </scstep>
  <scstep>
   <time name="dav">    0.50    0.51</time>
   <time name="total">    0.56    0.56</time>
   <energy>
    <i name="e_fr_energy">    -48.04428395 </i>
    <i name="e_wo_entrp">    -48.03978334 </i>
    <i name="e_0_energy">    -48.04203365 </i>
   </energy>
  </scstep>
  <scstep>
   <time name="dav">    0.35    0.35</time>
   <time name="total">    0.40    0.40</time>
   <energy>
    <i name="e_fr_energy">    -48.04428541 </i>
    <i name="e_wo_entrp">    -48.03977847 </i>
    <i name="e_0_energy">    -48.04203194 </i>
   </energy>
  </scstep>
  <scstep>
   <time name="dav">    0.25    0.25</time>
   <time name="total">    0.27    0.27</time>
   <energy>
    <i name="alphaZ">    162.51357025 </i>
    <i name="ewald">  -1594.08858981 </i>
    <i name="hartreedc">    -62.07859332 </i>
    <i name="XCdc">    121.11084616 </i>
    <i name="pawpsdc">   4307.67102461 </i>
    <i name="pawaedc">  -4313.56819349 </i>
    <i name="eentropy">     -0.00450814 </i>
    <i name="bandstr">    153.19785604 </i>
    <i name="atom">   1177.20230207 </i>
    <i name="e_fr_energy">    -48.04428564 </i>
    <i name="e_wo_entrp">    -48.03977751 </i>
    <i name="e_0_energy">    -48.04203157 </i>
   </energy>
  </scstep>
  <structure>
   <crystal>
    <varray name="basis" >
     <v>      -0.84739173       2.94181049       1.19107446 </v>
     <v>       3.66580739       1.17119421      -0.88460293 </v>
     <v>      -1.19839288       0.87466292      -2.07163611 </v>
    </varray>
    <i name="volume">     32.35046659 </i>
    <varray name="rec_basis" >
     <v>      -0.05108300       0.26751765       0.14249861 </v>
     <v>       0.22058877       0.09838691      -0.08606561 </v>
     <v>      -0.12356278       0.11179574      -0.36403095 </v>
    </varray>
   </crystal>
   <varray name="positions" >
    <v>       0.10718235       0.14631482       0.61484191 </v>
    <v>       0.39281765       0.35368518       0.88515809 </v>
    <v>       0.10718235       0.64631482       0.11484191 </v>
    <v>       0.39281765       0.85368518       0.38515809 </v>
    <v>       0.60718235       0.14631482       0.11484191 </v>
    <v>       0.89281765       0.35368518       0.38515809 </v>
    <v>       0.60718235       0.64631482       0.61484191 </v>
    <v>       0.89281765       0.85368518       0.88515809 </v>
   </varray>
  </structure>
  <varray name="forces" >
   <v>      -3.73969810       3.17462610       0.20989880 </v>
   <v>       3.73969810      -3.17462610      -0.20989880 </v>
   <v>      -3.73969810       3.17462610       0.20989880 </v>
   <v>       3.73969810      -3.17462610      -0.20989880 </v>
   <v>      -3.73969810       3.17462610       0.20989880 </v>
   <v>       3.73969810      -3.17462610      -0.20989880 </v>
   <v>      -3.73969810       3.17462610       0.20989880 </v>
   <v>       3.73969810      -3.17462610      -0.20989880 </v>
  </varray>
  <varray name="stress" >
   <v>     807.23677844    -261.30761568      78.36172779 </v>
   <v>    -261.30761482    2769.72973447     -52.90341572 </v>
   <v>      78.36172841     -52.90341564    4500.57426354 </v>
  </varray>
  <energy>
   <i name="e_fr_energy">    -48.04428564 </i>
   <i name="e_wo_entrp">    -48.03977751 </i>
   <i name="e_0_energy">    -48.04203157 </i>
  </energy>
  <time name="totalsc">    4.08    4.08</time>
 </calculation>
 <calculation>
  <scstep>
   <time name="dav">    0.35    0.35</time>
   <time name="total">    0.40    0.40</time>
   <energy>
    <i name="alphaZ">    162.51357025 </i>
    <i name="ewald">  -1589.78223923 </i>
    <i name="hartreedc">    -63.81013040 </i>
    <i name="XCdc">    121.19728320 </i>
    <i name="pawpsdc">   4307.42116603 </i>
    <i name="pawaedc">  -4313.31838844 </i>
    <i name="eentropy">     -0.00906285 </i>
    <i name="bandstr">    149.33670244 </i>
    <i name="atom">   1177.20230207 </i>
    <i name="e_fr_energy">    -49.24879695 </i>
    <i name="e_wo_entrp">    -49.23973410 </i>
    <i name="e_0_energy">    -49.24426553 </i>
   </energy>
  </scstep>
  <scstep>
   <time name="dav">    0.40    0.40</time>
   <time name="total">    0.45    0.45</time>
   <energy>
    <i name="e_fr_energy">    -49.23597450 </i>
    <i name="e_wo_entrp">    -49.22633187 </i>
    <i name="e_0_energy">    -49.23115318 </i>
   </energy>
  </scstep>
  <scstep>
   <time name="dav">    0.47    0.47</time>
   <time name="total">    0.53    0.53</time>
   <energy>
    <i name="e_fr_energy">    -49.13792967 </i>
    <i name="e_wo_entrp">    -49.12973682 </i>
    <i name="e_0_energy">    -49.13383325 </i>
   </energy>
  </scstep>
  <scstep>
   <time name="dav">    0.53    0.53</time>
   <time name="total">    0.59    0.59</time>
   <energy>
    <i name="e_fr_energy">    -49.13962396 </i>
    <i name="e_wo_entrp">    -49.13142019 </i>
    <i name="e_0_energy">    -49.13552208 </i>
   </energy>
  </scstep>
  <scstep>
   <time name="dav">    0.52    0.52</time>
   <time name="total">    0.58    0.59</time>
   <energy>
    <i name="e_fr_energy">    -49.13957391 </i>
    <i name="e_wo_entrp">    -49.13133893 </i>
    <i name="e_0_energy">    -49.13545642 </i>
   </energy>
  </scstep>
  <scstep>
   <time name="dav">    0.47    0.47</time>
   <time name="total">    0.52    0.52</time>
   <energy>
    <i name="e_fr_energy">    -49.13956050 </i>
    <i name="e_wo_entrp">    -49.13132523 </i>
    <i name="e_0_energy">    -49.13544286 </i>
   </energy>
  </scstep>
  <scstep>
   <time name="dav">    0.35    0.35</time>
   <time name="total">    0.37    0.37</time>
   <energy>
    <i name="alphaZ">    162.51357025 </i>
    <i name="ewald">  -1589.78223923 </i>
    <i name="hartreedc">    -66.25992253 </i>
    <i name="XCdc">    121.36646504 </i>
    <i name="pawpsdc">   4408.79418569 </i>
    <i name="pawaedc">  -4414.73770491 </i>
    <i name="eentropy">     -0.00823243 </i>
    <i name="bandstr">    151.77201581 </i>
    <i name="atom">   1177.20230207 </i>
    <i name="e_fr_energy">    -49.13956023 </i>
    <i name="e_wo_entrp">    -49.13132780 </i>
    <i name="e_0_energy">    -49.13544401 </i>
   </energy>
  </scstep>
  <structure>
   <crystal>
    <varray name="basis" >
     <v>      -0.84739173       2.94181049       1.19107446 </v>
     <v>       3.66580739       1.17119421      -0.88460293 </v>
     <v>      -1.19839288       0.87466292      -2.07163611 </v>
    </varray>
    <i name="volume">     32.35046659 </i>
    <varray name="rec_basis" >
     <v>      -0.05108300       0.26751765       0.14249861 </v>
     <v>       0.22058877       0.09838691      -0.08606561 </v>
     <v>      -0.12356278       0.11179574      -0.36403095 </v>
    </varray>
   </crystal>
   <varray name="positions" >
    <v>       0.11765031       0.13379225       0.62080984 </v>
    <v>       0.38234969       0.36620775       0.87919016 </v>
    <v>       0.11765031       0.63379225       0.12080984 </v>
    <v>       0.38234969       0.86620775       0.37919016 </v>
    <v>       0.61765031       0.13379225       0.12080984 </v>
    <v>       0.88234969       0.36620775       0.37919016 </v>
    <v>       0.61765031       0.63379225       0.62080984 </v>
    <v>       0.88234969       0.86620775       0.87919016 </v>
   </varray>
  </structure>
  <varray name="forces" >
   <v>       0.18169562       0.44930366       0.43749947 </v>
   <v>      -0.18169562      -0.44930366      -0.43749947 </v>
   <v>       0.18169562       0.44930366       0.43749947 </v>
   <v>      -0.18169562      -0.44930366      -0.43749947 </v>
   <v>       0.18169562       0.44930366       0.43749947 </v>
   <v>      -0.18169562      -0.44930366      -0.43749947 </v>
   <v>       0.18169562       0.44930366       0.43749947 </v>
   <v>      -0.18169562      -0.44930366      -0.43749947 </v>
  </varray>
  <varray name="stress" >
   <v>     253.77140632    -120.13181932     174.57131861 </v>
   <v>    -120.13181936    2838.35428933     207.07886552 </v>
   <v>     174.57131806     207.07886604    5032.10040097 </v>
  </varray>
  <energy>
   <i name="e_fr_energy">    -49.13956023 </i>
   <i name="e_wo_entrp">    -49.13132780 </i>
   <i name="e_0_energy">    -49.13544401 </i>
  </energy>
  <time name="totalsc">    3.79    3.80</time>
 </calculation>
 <calculation>
  <scstep>
   <time name="dav">    0.35    0.35</time>
   <time name="total">    0.40    0.40</time>
   <energy>
    <i name="alphaZ">    162.51357025 </i>
    <i name="ewald">  -1589.62607994 </i>
    <i name="hartreedc">    -66.32370265 </i>
    <i name="XCdc">    121.37024146 </i>
    <i name="pawpsdc">   4408.71594142 </i>
    <i name="pawaedc">  -4414.65946079 </i>
    <i name="eentropy">     -0.00823925 </i>
    <i name="bandstr">    151.67560741 </i>
    <i name="atom">   1177.20230207 </i>
    <i name="e_fr_energy">    -49.13982002 </i>
    <i name="e_wo_entrp">    -49.13158077 </i>
    <i name="e_0_energy">    -49.13570039 </i>
   </energy>
  </scstep>
  <scstep>
   <time name="dav">    0.37    0.37</time>
   <time name="total">    0.42    0.42</time>
   <energy>
    <i name="e_fr_energy">    -49.13979361 </i>
    <i name="e_wo_entrp">    -49.13157006 </i>
    <i name="e_0_energy">    -49.13568184 </i>
   </energy>
  </scstep>
  <scstep>
   <time name="dav">    0.43    0.43</time>
   <time name="total">    0.49    0.49</time>
   <energy>
    <i name="e_fr_energy">    -49.13977433 </i>
    <i name="e_wo_entrp">    -49.13156593 </i>
    <i name="e_0_energy">    -49.13567013 </i>
   </energy>
  </scstep>
  <scstep>
   <time name="dav">    0.46    0.46</time>
   <time name="total">    0.48    0.48</time>
   <energy>
    <i name="alphaZ">    162.51357025 </i>
    <i name="ewald">  -1589.62607994 </i>
    <i name="hartreedc">    -66.37207399 </i>
    <i name="XCdc">    121.37396909 </i>
    <i name="pawpsdc">   4411.79341238 </i>
    <i name="pawaedc">  -4417.73873724 </i>
    <i name="eentropy">     -0.00821027 </i>
    <i name="bandstr">    151.72207312 </i>
    <i name="atom">   1177.20230207 </i>
    <i name="e_fr_energy">    -49.13977453 </i>
    <i name="e_wo_entrp">    -49.13156427 </i>
    <i name="e_0_energy">    -49.13566940 </i>
   </energy>
  </scstep>
  <structure>
   <crystal>
    <varray name="basis" >
     <v>      -0.84739173       2.94181049       1.19107446 </v>
     <v>       3.66580739       1.17119421      -0.88460293 </v>
     <v>      -1.19839288       0.87466292      -2.07163611 </v>
    </varray>
    <i name="volume">     32.35046659 </i>
    <varray name="rec_basis" >
     <v>      -0.05108300       0.26751765       0.14249861 </v>
     <v>       0.22058877       0.09838691      -0.08606561 </v>
     <v>      -0.12356278       0.11179574      -0.36403095 </v>
    </varray>
   </crystal>
   <varray name="positions" >
    <v>       0.11779968       0.13361356       0.62089500 </v>
    <v>       0.38220032       0.36638644       0.87910500 </v>
    <v>       0.11779968       0.63361356       0.12089500 </v>
    <v>       0.38220032       0.86638644       0.37910500 </v>
    <v>       0.61779968       0.13361356       0.12089500 </v>
    <v>       0.88220032       0.36638644       0.37910500 </v>
    <v>       0.61779968       0.63361356       0.62089500 </v>
    <v>       0.88220032       0.86638644       0.87910500 </v>
   </varray>
  </structure>
  <varray name="forces" >
   <v>       0.21507585       0.42096385       0.43248974 </v>
   <v>      -0.21507585      -0.42096385      -0.43248974 </v>
   <v>       0.21507585       0.42096385       0.43248974 </v>
   <v>      -0.21507585      -0.42096385      -0.43248974 </v>
   <v>       0.21507585       0.42096385       0.43248974 </v>
   <v>      -0.21507585      -0.42096385      -0.43248974 </v>
   <v>       0.21507585       0.42096385       0.43248974 </v>
   <v>      -0.21507585      -0.42096385      -0.43248974 </v>
  </varray>
  <varray name="stress" >
   <v>     248.24156828    -122.66437111     173.30631092 </v>
   <v>    -122.66437112    2839.39084171     211.61029172 </v>
   <v>     173.30631032     211.61029112    5043.84075966 </v>
  </varray>
  <energy>
   <i name="e_fr_energy">    -49.13977453 </i>
   <i name="e_wo_entrp">    -49.13156427 </i>
   <i name="e_0_energy">    -49.13566940 </i>
  </energy>
  <time name="totalsc">    2.28    2.28</time>
 </calculation>
 <calculation>
  <scstep>
   <time name="dav">    0.45    0.45</time>
   <time name="total">    0.52    0.52</time>
   <energy>
    <i name="alphaZ">    162.51357025 </i>
    <i name="ewald">  -1588.56119416 </i>
    <i name="hartreedc">    -66.53448940 </i>
    <i name="XCdc">    121.39314871 </i>
    <i name="pawpsdc">   4412.32079959 </i>
    <i name="pawaedc">  -4418.26609109 </i>
    <i name="eentropy">     -0.01107610 </i>
    <i name="bandstr">    150.79611270 </i>
    <i name="atom">   1177.20230207 </i>
    <i name="e_fr_energy">    -49.14691743 </i>
    <i name="e_wo_entrp">    -49.13584133 </i>
    <i name="e_0_energy">    -49.14137938 </i>
   </energy>
  </scstep>
  <scstep>
   <time name="dav">    0.46    0.46</time>
   <time name="total">    0.51    0.51</time>
   <energy>
    <i name="e_fr_energy">    -49.13993934 </i>
    <i name="e_wo_entrp">    -49.12876003 </i>
    <i name="e_0_energy">    -49.13434969 </i>
   </energy>
  </scstep>
  <scstep>
   <time name="dav">    0.34    0.34</time>
   <time name="total">    0.39    0.39</time>
   <energy>
    <i name="e_fr_energy">    -49.12948308 </i>
    <i name="e_wo_entrp">    -49.11828057 </i>
    <i name="e_0_energy">    -49.12388183 </i>
   </energy>
  </scstep>
  <scstep>
   <time name="dav">    0.35    0.36</time>
   <time name="total">    0.40    0.41</time>
   <energy>
    <i name="e_fr_energy">    -49.12965667 </i>
    <i name="e_wo_entrp">    -49.11845424 </i>
    <i name="e_0_energy">    -49.12405545 </i>
   </energy>
  </scstep>
  <scstep>
   <time name="dav">    0.37    0.37</time>
   <time name="total">    0.42    0.42</time>
   <energy>
    <i name="e_fr_energy">    -49.12965275 </i>
    <i name="e_wo_entrp">    -49.11844810 </i>
    <i name="e_0_energy">    -49.12405043 </i>
   </energy>
  </scstep>
  <scstep>
   <time name="dav">    0.30    0.30</time>
   <time name="total">    0.35    0.35</time>
   <energy>
    <i name="e_fr_energy">    -49.12965384 </i>
    <i name="e_wo_entrp">    -49.11844840 </i>
    <i name="e_0_energy">    -49.12405112 </i>
   </energy>
  </scstep>
  <scstep>
   <time name="dav">    0.29    0.29</time>
   <time name="total">    0.31    0.31</time>
   <energy>
    <i name="alphaZ">    162.51357025 </i>
    <i name="ewald">  -1588.56119416 </i>
    <i name="hartreedc">    -66.55925714 </i>
    <i name="XCdc">    121.39483879 </i>
    <i name="pawpsdc">   4427.30535653 </i>
    <i name="pawaedc">  -4433.24920903 </i>
    <i name="eentropy">     -0.01120513 </i>
    <i name="bandstr">    150.83514395 </i>
    <i name="atom">   1177.20230207 </i>
    <i name="e_fr_energy">    -49.12965388 </i>
    <i name="e_wo_entrp">    -49.11844874 </i>
    <i name="e_0_energy">    -49.12405131 </i>
   </energy>
  </scstep>
  <structure>
   <crystal>
    <varray name="basis" >
     <v>      -0.84739173       2.94181049       1.19107446 </v>
     <v>       3.66580739       1.17119421      -0.88460293 </v>
     <v>      -1.19839288       0.87466292      -2.07163611 </v>
    </varray>
    <i name="volume">     32.35046659 </i>
    <varray name="rec_basis" >
     <v>      -0.05108300       0.26751765       0.14249861 </v>
     <v>       0.22058877       0.09838691      -0.08606561 </v>
     <v>      -0.12356278       0.11179574      -0.36403095 </v>
    </varray>
   </crystal>
   <varray name="positions" >
    <v>       0.12351423       0.13727064       0.61437829 </v>
    <v>       0.37648577       0.36272936       0.88562171 </v>
    <v>       0.12351423       0.63727064       0.11437829 </v>
    <v>       0.37648577       0.86272936       0.38562171 </v>
    <v>       0.62351423       0.13727064       0.11437829 </v>
    <v>       0.87648577       0.36272936       0.38562171 </v>
    <v>       0.62351423       0.63727064       0.61437829 </v>
    <v>       0.87648577       0.86272936       0.88562171 </v>
   </varray>
  </structure>
  <varray name="forces" >
   <v>      -0.19524050      -0.34940369      -0.44894152 </v>
   <v>       0.19524050       0.34940369       0.44894152 </v>
   <v>      -0.19524050      -0.34940369      -0.44894152 </v>
   <v>       0.19524050       0.34940369       0.44894152 </v>
   <v>      -0.19524050      -0.34940369      -0.44894152 </v>
   <v>       0.19524050       0.34940369       0.44894152 </v>
   <v>      -0.19524050      -0.34940369      -0.44894152 </v>
   <v>       0.19524050       0.34940369       0.44894152 </v>
  </varray>
  <varray name="stress" >
   <v>     359.94506758     -40.61178902     108.86789567 </v>
   <v>     -40.61178931    2958.81048519      70.05710627 </v>
   <v>     108.86789587      70.05710647    4882.23442754 </v>
  </varray>
  <energy>
   <i name="e_fr_energy">    -49.12965388 </i>
   <i name="e_wo_entrp">    -49.11844874 </i>
   <i name="e_0_energy">    -49.12405131 </i>
  </energy>
  <time name="totalsc">    3.36    3.37</time>
 </calculation>
 <calculation>
  <scstep>
   <time name="dav">    0.46    0.46</time>
   <time name="total">    0.53    0.53</time>
   <energy>
    <i name="alphaZ">    162.51357025 </i>
    <i name="ewald">  -1589.28861518 </i>
    <i name="hartreedc">    -66.36281459 </i>
    <i name="XCdc">    121.37658896 </i>
    <i name="pawpsdc">   4427.25269996 </i>
    <i name="pawaedc">  -4433.19655175 </i>
    <i name="eentropy">     -0.01190489 </i>
    <i name="bandstr">    151.34131716 </i>
    <i name="atom">   1177.20230207 </i>
    <i name="e_fr_energy">    -49.17340803 </i>
    <i name="e_wo_entrp">    -49.16150313 </i>
    <i name="e_0_energy">    -49.16745558 </i>
   </energy>
  </scstep>
  <scstep>
   <time name="dav">    0.53    0.53</time>
   <time name="total">    0.60    0.60</time>
   <energy>
    <i name="e_fr_energy">    -49.17100437 </i>
    <i name="e_wo_entrp">    -49.15930816 </i>
    <i name="e_0_energy">    -49.16515627 </i>
   </energy>
  </scstep>
  <scstep>
   <time name="dav">    0.45    0.45</time>
   <time name="total">    0.51    0.51</time>
   <energy>
    <i name="e_fr_energy">    -49.16798211 </i>
    <i name="e_wo_entrp">    -49.15659843 </i>
    <i name="e_0_energy">    -49.16229027 </i>
   </energy>
  </scstep>
  <scstep>
   <time name="dav">    0.35    0.35</time>
   <time name="total">    0.40    0.40</time>
   <energy>
    <i name="e_fr_energy">    -49.16802307 </i>
    <i name="e_wo_entrp">    -49.15661182 </i>
    <i name="e_0_energy">    -49.16231744 </i>
   </energy>
  </scstep>
  <scstep>
   <time name="dav">    0.37    0.37</time>
   <time name="total">    0.41    0.41</time>
   <energy>
    <i name="e_fr_energy">    -49.16802119 </i>
    <i name="e_wo_entrp">    -49.15660506 </i>
    <i name="e_0_energy">    -49.16231312 </i>
   </energy>
  </scstep>
  <scstep>
   <time name="dav">    0.24    0.24</time>
   <time name="total">    0.26    0.26</time>
   <energy>
    <i name="alphaZ">    162.51357025 </i>
    <i name="ewald">  -1589.28861518 </i>
    <i name="hartreedc">    -66.39356762 </i>
    <i name="XCdc">    121.37903740 </i>
    <i name="pawpsdc">   4416.55539899 </i>
    <i name="pawaedc">  -4422.49867914 </i>
    <i name="eentropy">     -0.01141674 </i>
    <i name="bandstr">    151.37394879 </i>
    <i name="atom">   1177.20230207 </i>
    <i name="e_fr_energy">    -49.16802119 </i>
    <i name="e_wo_entrp">    -49.15660445 </i>
    <i name="e_0_energy">    -49.16231282 </i>
   </energy>
  </scstep>
  <structure>
   <crystal>
    <varray name="basis" >
     <v>      -0.84739173       2.94181049       1.19107446 </v>
     <v>       3.66580739       1.17119421      -0.88460293 </v>
     <v>      -1.19839288       0.87466292      -2.07163611 </v>
    </varray>
    <i name="volume">     32.35046659 </i>
    <varray name="rec_basis" >
     <v>      -0.05108300       0.26751765       0.14249861 </v>
     <v>       0.22058877       0.09838691      -0.08606561 </v>
     <v>      -0.12356278       0.11179574      -0.36403095 </v>
    </varray>
   </crystal>
   <varray name="positions" >
    <v>       0.12029337       0.13520942       0.61805127 </v>
    <v>       0.37970663       0.36479058       0.88194873 </v>
    <v>       0.12029337       0.63520942       0.11805127 </v>
    <v>       0.37970663       0.86479058       0.38194873 </v>
    <v>       0.62029337       0.13520942       0.11805127 </v>
    <v>       0.87970663       0.36479058       0.38194873 </v>
    <v>       0.62029337       0.63520942       0.61805127 </v>
    <v>       0.87970663       0.86479058       0.88194873 </v>
   </varray>
  </structure>
  <varray name="forces" >
   <v>      -0.04126567       0.01726194       0.02440005 </v>
   <v>       0.04126567      -0.01726194      -0.02440005 </v>
   <v>      -0.04126567       0.01726194       0.02440005 </v>
   <v>       0.04126567      -0.01726194      -0.02440005 </v>
   <v>      -0.04126567       0.01726194       0.02440005 </v>
   <v>       0.04126567      -0.01726194      -0.02440005 </v>
   <v>      -0.04126567       0.01726194       0.02440005 </v>
   <v>       0.04126567      -0.01726194      -0.02440005 </v>
  </varray>
  <varray name="stress" >
   <v>     300.88566757    -102.38474815     140.99492658 </v>
   <v>    -102.38474802    2877.78206779     152.84182190 </v>
   <v>     140.99492609     152.84182198    4974.05196327 </v>
  </varray>
  <energy>
   <i name="e_fr_energy">    -49.16802119 </i>
   <i name="e_wo_entrp">    -49.15660445 </i>
   <i name="e_0_energy">    -49.16231282 </i>
  </energy>
  <time name="totalsc">    3.04    3.04</time>
 </calculation>
 <calculation>
  <scstep>
   <time name="dav">    0.36    0.36</time>
   <time name="total">    0.42    0.42</time>
   <energy>
    <i name="alphaZ">    162.51357025 </i>
    <i name="ewald">  -1589.01619593 </i>
    <i name="hartreedc">    -66.50216834 </i>
    <i name="XCdc">    121.38546313 </i>
    <i name="pawpsdc">   4416.55767219 </i>
    <i name="pawaedc">  -4422.50093070 </i>
    <i name="eentropy">     -0.01058126 </i>
    <i name="bandstr">    151.20234971 </i>
    <i name="atom">   1177.20230207 </i>
    <i name="e_fr_energy">    -49.16851890 </i>
    <i name="e_wo_entrp">    -49.15793764 </i>
    <i name="e_0_energy">    -49.16322827 </i>
   </energy>
  </scstep>
  <scstep>
   <time name="dav">    0.47    0.47</time>
   <time name="total">    0.53    0.53</time>
   <energy>
    <i name="e_fr_energy">    -49.16837368 </i>
    <i name="e_wo_entrp">    -49.15780090 </i>
    <i name="e_0_energy">    -49.16308729 </i>
   </energy>
  </scstep>
  <scstep>
   <time name="dav">    0.49    0.49</time>
   <time name="total">    0.56    0.56</time>
   <energy>
    <i name="e_fr_energy">    -49.16827968 </i>
    <i name="e_wo_entrp">    -49.15771594 </i>
    <i name="e_0_energy">    -49.16299781 </i>
   </energy>
  </scstep>
  <scstep>
   <time name="dav">    0.50    0.50</time>
   <time name="total">    0.56    0.56</time>
   <energy>
    <i name="e_fr_energy">    -49.16828066 </i>
    <i name="e_wo_entrp">    -49.15771533 </i>
    <i name="e_0_energy">    -49.16299799 </i>
   </energy>
  </scstep>
  <scstep>
   <time name="dav">    0.33    0.33</time>
   <time name="total">    0.35    0.35</time>
   <energy>
    <i name="alphaZ">    162.51357025 </i>
    <i name="ewald">  -1589.01619593 </i>
    <i name="hartreedc">    -66.60780178 </i>
    <i name="XCdc">    121.39365538 </i>
    <i name="pawpsdc">   4423.46164246 </i>
    <i name="pawaedc">  -4429.40855322 </i>
    <i name="eentropy">     -0.01056583 </i>
    <i name="bandstr">    151.30366589 </i>
    <i name="atom">   1177.20230207 </i>
    <i name="e_fr_energy">    -49.16828072 </i>
    <i name="e_wo_entrp">    -49.15771489 </i>
    <i name="e_0_energy">    -49.16299781 </i>
   </energy>
  </scstep>
  <structure>
   <crystal>
    <varray name="basis" >
     <v>      -0.84739173       2.94181049       1.19107446 </v>
     <v>       3.66580739       1.17119421      -0.88460293 </v>
     <v>      -1.19839288       0.87466292      -2.07163611 </v>
    </varray>
    <i name="volume">     32.35046659 </i>
    <varray name="rec_basis" >
     <v>      -0.05108300       0.26751765       0.14249861 </v>
     <v>       0.22058877       0.09838691      -0.08606561 </v>
     <v>      -0.12356278       0.11179574      -0.36403095 </v>
    </varray>
   </crystal>
   <varray name="positions" >
    <v>       0.12059965       0.13480090       0.61807079 </v>
    <v>       0.37940035       0.36519910       0.88192921 </v>
    <v>       0.12059965       0.63480090       0.11807079 </v>
    <v>       0.37940035       0.86519910       0.38192921 </v>
    <v>       0.62059965       0.13480090       0.11807079 </v>
    <v>       0.87940035       0.36519910       0.38192921 </v>
    <v>       0.62059965       0.63480090       0.61807079 </v>
    <v>       0.87940035       0.86519910       0.88192921 </v>
   </varray>
  </structure>
  <varray name="forces" >
   <v>       0.01122868      -0.00607289      -0.02369572 </v>
   <v>      -0.01122868       0.00607289       0.02369572 </v>
   <v>       0.01122868      -0.00607289      -0.02369572 </v>
   <v>      -0.01122868       0.00607289       0.02369572 </v>
   <v>       0.01122868      -0.00607289      -0.02369572 </v>
   <v>      -0.01122868       0.00607289       0.02369572 </v>
   <v>       0.01122868      -0.00607289      -0.02369572 </v>
   <v>      -0.01122868       0.00607289       0.02369572 </v>
  </varray>
  <varray name="stress" >
   <v>     297.80094598    -109.13246484     142.29507699 </v>
   <v>    -109.13246472    2871.58669016     166.69487799 </v>
   <v>     142.29507693     166.69487785    4998.32762815 </v>
  </varray>
  <energy>
   <i name="e_fr_energy">    -49.16828072 </i>
   <i name="e_wo_entrp">    -49.15771489 </i>
   <i name="e_0_energy">    -49.16299781 </i>
  </energy>
  <time name="totalsc">    2.78    2.78</time>
 </calculation>
 <calculation>
  <scstep>
   <time name="dav">    0.35    0.35</time>
   <time name="total">    0.40    0.40</time>
   <energy>
    <i name="alphaZ">    162.51357025 </i>
    <i name="ewald">  -1589.08793414 </i>
    <i name="hartreedc">    -66.57927212 </i>
    <i name="XCdc">    121.39196863 </i>
    <i name="pawpsdc">   4423.41608958 </i>
    <i name="pawaedc">  -4429.36300739 </i>
    <i name="eentropy">     -0.01083746 </i>
    <i name="bandstr">    151.34878514 </i>
    <i name="atom">   1177.20230207 </i>
    <i name="e_fr_energy">    -49.16833545 </i>
    <i name="e_wo_entrp">    -49.15749800 </i>
    <i name="e_0_energy">    -49.16291672 </i>
   </energy>
  </scstep>
  <scstep>
   <time name="dav">    0.36    0.36</time>
   <time name="total">    0.41    0.41</time>
   <energy>
    <i name="e_fr_energy">    -49.16832602 </i>
    <i name="e_wo_entrp">    -49.15748530 </i>
    <i name="e_0_energy">    -49.16290566 </i>
   </energy>
  </scstep>
  <scstep>
   <time name="dav">    0.37    0.37</time>
   <time name="total">    0.41    0.41</time>
   <energy>
    <i name="e_fr_energy">    -49.16831983 </i>
    <i name="e_wo_entrp">    -49.15747615 </i>
    <i name="e_0_energy">    -49.16289799 </i>
   </energy>
  </scstep>
  <scstep>
   <time name="dav">    0.29    0.29</time>
   <time name="total">    0.30    0.30</time>
   <energy>
    <i name="alphaZ">    162.51357025 </i>
    <i name="ewald">  -1589.08793414 </i>
    <i name="hartreedc">    -66.55267655 </i>
    <i name="XCdc">    121.38991015 </i>
    <i name="pawpsdc">   4421.94063729 </i>
    <i name="pawaedc">  -4427.88660548 </i>
    <i name="eentropy">     -0.01084321 </i>
    <i name="bandstr">    151.32331974 </i>
    <i name="atom">   1177.20230207 </i>
    <i name="e_fr_energy">    -49.16831988 </i>
    <i name="e_wo_entrp">    -49.15747667 </i>
    <i name="e_0_energy">    -49.16289828 </i>
   </energy>
  </scstep>
  <structure>
   <crystal>
    <varray name="basis" >
     <v>      -0.84739173       2.94181049       1.19107446 </v>
     <v>       3.66580739       1.17119421      -0.88460293 </v>
     <v>      -1.19839288       0.87466292      -2.07163611 </v>
    </varray>
    <i name="volume">     32.35046659 </i>
    <varray name="rec_basis" >
     <v>      -0.05108300       0.26751765       0.14249861 </v>
     <v>       0.22058877       0.09838691      -0.08606561 </v>
     <v>      -0.12356278       0.11179574      -0.36403095 </v>
    </varray>
   </crystal>
   <varray name="positions" >
    <v>       0.12052022       0.13490685       0.61806572 </v>
    <v>       0.37947978       0.36509315       0.88193428 </v>
    <v>       0.12052022       0.63490685       0.11806572 </v>
    <v>       0.37947978       0.86509315       0.38193428 </v>
    <v>       0.62052022       0.13490685       0.11806572 </v>
    <v>       0.87947978       0.36509315       0.38193428 </v>
    <v>       0.62052022       0.63490685       0.61806572 </v>
    <v>       0.87947978       0.86509315       0.88193428 </v>
   </varray>
  </structure>
  <varray name="forces" >
   <v>      -0.00425053       0.00045400      -0.01047062 </v>
   <v>       0.00425053      -0.00045400       0.01047062 </v>
   <v>      -0.00425053       0.00045400      -0.01047062 </v>
   <v>       0.00425053      -0.00045400       0.01047062 </v>
   <v>      -0.00425053       0.00045400      -0.01047062 </v>
   <v>       0.00425053      -0.00045400       0.01047062 </v>
   <v>      -0.00425053       0.00045400      -0.01047062 </v>
   <v>       0.00425053      -0.00045400       0.01047062 </v>
  </varray>
  <varray name="stress" >
   <v>     298.65791352    -107.29581660     142.35116857 </v>
   <v>    -107.29581648    2873.29349023     163.34667918 </v>
   <v>     142.35116874     163.34667948    4991.98115075 </v>
  </varray>
  <energy>
   <i name="e_fr_energy">    -49.16831988 </i>
   <i name="e_wo_entrp">    -49.15747667 </i>
   <i name="e_0_energy">    -49.16289828 </i>
  </energy>
  <time name="totalsc">    1.95    1.95</time>
 </calculation>
 <calculation>
  <scstep>
   <time name="dav">    0.47    0.47</time>
   <time name="total">    0.53    0.53</time>
   <energy>
    <i name="alphaZ">    162.51357025 </i>
    <i name="ewald">  -1589.04989779 </i>
    <i name="hartreedc">    -66.57037347 </i>
    <i name="XCdc">    121.39086640 </i>
    <i name="pawpsdc">   4421.67533008 </i>
    <i name="pawaedc">  -4427.62132881 </i>
    <i name="eentropy">     -0.01076316 </i>
    <i name="bandstr">    151.30197825 </i>
    <i name="atom">   1177.20230207 </i>
    <i name="e_fr_energy">    -49.16831619 </i>
    <i name="e_wo_entrp">    -49.15755303 </i>
    <i name="e_0_energy">    -49.16293461 </i>
   </energy>
  </scstep>
  <scstep>
   <time name="dav">    0.53    0.53</time>
   <time name="total">    0.60    0.60</time>
   <energy>
    <i name="e_fr_energy">    -49.16831429 </i>
    <i name="e_wo_entrp">    -49.15755600 </i>
    <i name="e_0_energy">    -49.16293514 </i>
   </energy>
  </scstep>
  <scstep>
   <time name="dav">    0.51    0.52</time>
   <time name="total">    0.58    0.58</time>
   <energy>
    <i name="e_fr_energy">    -49.16831239 </i>
    <i name="e_wo_entrp">    -49.15755922 </i>
    <i name="e_0_energy">    -49.16293581 </i>
   </energy>
  </scstep>
  <scstep>
   <time name="dav">    0.24    0.24</time>
   <time name="total">    0.26    0.26</time>
   <energy>
    <i name="alphaZ">    162.51357025 </i>
    <i name="ewald">  -1589.04989779 </i>
    <i name="hartreedc">    -66.58220229 </i>
    <i name="XCdc">    121.39178099 </i>
    <i name="pawpsdc">   4422.40021960 </i>
    <i name="pawaedc">  -4428.34669060 </i>
    <i name="eentropy">     -0.01075349 </i>
    <i name="bandstr">    151.31335886 </i>
    <i name="atom">   1177.20230207 </i>
    <i name="e_fr_energy">    -49.16831242 </i>
    <i name="e_wo_entrp">    -49.15755892 </i>
    <i name="e_0_energy">    -49.16293567 </i>
   </energy>
  </scstep>
  <structure>
   <crystal>
    <varray name="basis" >
     <v>      -0.84739173       2.94181049       1.19107446 </v>
     <v>       3.66580739       1.17119421      -0.88460293 </v>
     <v>      -1.19839288       0.87466292      -2.07163611 </v>
    </varray>
    <i name="volume">     32.35046659 </i>
    <varray name="rec_basis" >
     <v>      -0.05108300       0.26751765       0.14249861 </v>
     <v>       0.22058877       0.09838691      -0.08606561 </v>
     <v>      -0.12356278       0.11179574      -0.36403095 </v>
    </varray>
   </crystal>
   <varray name="positions" >
    <v>       0.12050137       0.13487728       0.61822400 </v>
    <v>       0.37949863       0.36512272       0.88177600 </v>
    <v>       0.12050137       0.63487728       0.11822400 </v>
    <v>       0.37949863       0.86512272       0.38177600 </v>
    <v>       0.62050137       0.13487728       0.11822400 </v>
    <v>       0.87949863       0.36512272       0.38177600 </v>
    <v>       0.62050137       0.63487728       0.61822400 </v>
    <v>       0.87949863       0.86512272       0.88177600 </v>
   </varray>
  </structure>
  <varray name="forces" >
   <v>       0.00278021      -0.01454508       0.01516921 </v>
   <v>      -0.00278021       0.01454508      -0.01516921 </v>
   <v>       0.00278021      -0.01454508       0.01516921 </v>
   <v>      -0.00278021       0.01454508      -0.01516921 </v>
   <v>       0.00278021      -0.01454508       0.01516921 </v>
   <v>      -0.00278021       0.01454508      -0.01516921 </v>
   <v>       0.00278021      -0.01454508       0.01516921 </v>
   <v>      -0.00278021       0.01454508      -0.01516921 </v>
  </varray>
  <varray name="stress" >
   <v>     295.38680173    -106.58337485     144.14286996 </v>
   <v>    -106.58337435    2875.13591334     164.33659793 </v>
   <v>     144.14286927     164.33659820    4994.83399516 </v>
  </varray>
  <energy>
   <i name="e_fr_energy">    -49.16831242 </i>
   <i name="e_wo_entrp">    -49.15755892 </i>
   <i name="e_0_energy">    -49.16293567 </i>
  </energy>
  <time name="totalsc">    2.32    2.32</time>
 </calculation>
 <calculation>
  <scstep>
   <time name="dav">    0.34    0.34</time>
   <time name="total">    0.39    0.39</time>
   <energy>
    <i name="alphaZ">    162.51357025 </i>
    <i name="ewald">  -1589.07202158 </i>
    <i name="hartreedc">    -66.57190900 </i>
    <i name="XCdc">    121.39122804 </i>
    <i name="pawpsdc">   4422.50365099 </i>
    <i name="pawaedc">  -4428.45010805 </i>
    <i name="eentropy">     -0.01080145 </i>
    <i name="bandstr">    151.32576021 </i>
    <i name="atom">   1177.20230207 </i>
    <i name="e_fr_energy">    -49.16832852 </i>
    <i name="e_wo_entrp">    -49.15752707 </i>
    <i name="e_0_energy">    -49.16292780 </i>
   </energy>
  </scstep>
  <scstep>
   <time name="dav">    0.37    0.37</time>
   <time name="total">    0.42    0.42</time>
   <energy>
    <i name="e_fr_energy">    -49.16832798 </i>
    <i name="e_wo_entrp">    -49.15752344 </i>
    <i name="e_0_energy">    -49.16292571 </i>
   </energy>
  </scstep>
  <scstep>
   <time name="dav">    0.27    0.27</time>
   <time name="total">    0.28    0.28</time>
   <energy>
    <i name="alphaZ">    162.51357025 </i>
    <i name="ewald">  -1589.07202158 </i>
    <i name="hartreedc">    -66.56459437 </i>
    <i name="XCdc">    121.39066235 </i>
    <i name="pawpsdc">   4422.12003984 </i>
    <i name="pawaedc">  -4428.06620229 </i>
    <i name="eentropy">     -0.01080771 </i>
    <i name="bandstr">    151.31872402 </i>
    <i name="atom">   1177.20230207 </i>
    <i name="e_fr_energy">    -49.16832743 </i>
    <i name="e_wo_entrp">    -49.15751972 </i>
    <i name="e_0_energy">    -49.16292357 </i>
   </energy>
  </scstep>
  <structure>
   <crystal>
    <varray name="basis" >
     <v>      -0.84739173       2.94181049       1.19107446 </v>
     <v>       3.66580739       1.17119421      -0.88460293 </v>
     <v>      -1.19839288       0.87466292      -2.07163611 </v>
    </varray>
    <i name="volume">     32.35046659 </i>
    <varray name="rec_basis" >
     <v>      -0.05108300       0.26751765       0.14249861 </v>
     <v>       0.22058877       0.09838691      -0.08606561 </v>
     <v>      -0.12356278       0.11179574      -0.36403095 </v>
    </varray>
   </crystal>
   <varray name="positions" >
    <v>       0.12051232       0.13489446       0.61813201 </v>
    <v>       0.37948768       0.36510554       0.88186799 </v>
    <v>       0.12051232       0.63489446       0.11813201 </v>
    <v>       0.37948768       0.86510554       0.38186799 </v>
    <v>       0.62051232       0.13489446       0.11813201 </v>
    <v>       0.87948768       0.36510554       0.38186799 </v>
    <v>       0.62051232       0.63489446       0.61813201 </v>
    <v>       0.87948768       0.86510554       0.88186799 </v>
   </varray>
  </structure>
  <varray name="forces" >
   <v>      -0.00150621      -0.00576910       0.00024903 </v>
   <v>       0.00150621       0.00576910      -0.00024903 </v>
   <v>      -0.00150621      -0.00576910       0.00024903 </v>
   <v>       0.00150621       0.00576910      -0.00024903 </v>
   <v>      -0.00150621      -0.00576910       0.00024903 </v>
   <v>       0.00150621       0.00576910      -0.00024903 </v>
   <v>      -0.00150621      -0.00576910       0.00024903 </v>
   <v>       0.00150621       0.00576910      -0.00024903 </v>
  </varray>
  <varray name="stress" >
   <v>     297.27647410    -106.98648199     143.15787744 </v>
   <v>    -106.98648182    2874.11185604     163.75655459 </v>
   <v>     143.15787724     163.75655448    4993.16469747 </v>
  </varray>
  <energy>
   <i name="e_fr_energy">    -49.16832743 </i>
   <i name="e_wo_entrp">    -49.15751972 </i>
   <i name="e_0_energy">    -49.16292357 </i>
  </energy>
  <time name="totalsc">    1.45    1.45</time>
  <eigenvalues>
   <array>
    <dimension dim="1">band</dimension>
    <dimension dim="2">kpoint</dimension>
    <dimension dim="3">spin</dimension>
    <field>eigene</field>
    <field>occ</field>
    <set>
     <set comment="spin 1">
      <set comment="kpoint 1">
       <r>  -10.6834    1.0000 </r>
       <r>   -5.6110    1.0000 </r>
       <r>   -2.1556    1.0000 </r>
       <r>   -0.8914    1.0000 </r>
       <r>    2.0653    1.0000 </r>
       <r>    2.0964    1.0000 </r>
       <r>    2.9285    1.0000 </r>
       <r>    4.3436    1.0000 </r>
       <r>    7.4845    1.0000 </r>
       <r>    7.6424    1.0000 </r>
       <r>    9.2624    1.0000 </r>
       <r>    9.2801    1.0000 </r>
       <r>    9.9063    1.0000 </r>
       <r>   12.9993    1.0000 </r>
       <r>   15.0248    1.0000 </r>
       <r>   15.9835    1.0000 </r>
       <r>   18.8816    0.0000 </r>
       <r>   18.9292    0.0000 </r>
       <r>   20.4744    0.0000 </r>
       <r>   20.6043    0.0000 </r>
       <r>   24.9691    0.0000 </r>
       <r>   26.0133    0.0000 </r>
      </set>
      <set comment="kpoint 2">
       <r>   -9.4042    1.0000 </r>
       <r>   -6.2632    1.0000 </r>
       <r>   -4.6073    1.0000 </r>
       <r>   -0.9684    1.0000 </r>
       <r>    0.3874    1.0000 </r>
       <r>    2.2119    1.0000 </r>
       <r>    4.9973    1.0000 </r>
       <r>    5.2128    1.0000 </r>
       <r>    7.2985    1.0000 </r>
       <r>    8.1930    1.0000 </r>
       <r>    9.1556    1.0000 </r>
       <r>   10.6508    1.0000 </r>
       <r>   10.9531    1.0000 </r>
       <r>   11.5498    1.0000 </r>
       <r>   15.6501    1.0000 </r>
       <r>   15.8458    1.0000 </r>
       <r>   18.1165    0.0000 </r>
       <r>   19.9263    0.0000 </r>
       <r>   20.4957    0.0000 </r>
       <r>   23.3031    0.0000 </r>
       <r>   23.4125    0.0000 </r>
       <r>   25.0169    0.0000 </r>
      </set>
      <set comment="kpoint 3">
       <r>   -9.1030    1.0000 </r>
       <r>   -6.7755    1.0000 </r>
       <r>   -3.7357    1.0000 </r>
       <r>   -2.4535    1.0000 </r>
       <r>    0.1604    1.0000 </r>
       <r>    2.5502    1.0000 </r>
       <r>    3.5773    1.0000 </r>
       <r>    7.0297    1.0000 </r>
       <r>    8.5398    1.0000 </r>
       <r>    8.9556    1.0000 </r>
       <r>    9.9667    1.0000 </r>
       <r>   10.5044    1.0000 </r>
       <r>   11.2637    1.0000 </r>
       <r>   12.4403    1.0000 </r>
       <r>   13.1567    1.0000 </r>
       <r>   14.0237    1.0000 </r>
       <r>   19.7760    0.0000 </r>
       <r>   19.9857    0.0000 </r>
       <r>   21.4161    0.0000 </r>
       <r>   23.0208    0.0000 </r>
       <r>   23.2424    0.0000 </r>
       <r>   23.5517    0.0000 </r>
      </set>
      <set comment="kpoint 4">
       <r>  -10.5838    1.0000 </r>
       <r>   -5.3220    1.0000 </r>
       <r>   -2.8961    1.0000 </r>
       <r>   -0.9678    1.0000 </r>
       <r>    0.2531    1.0000 </r>
       <r>    3.1133    1.0000 </r>
       <r>    3.4534    1.0000 </r>
       <r>    4.5633    1.0000 </r>
       <r>    7.1290    1.0000 </r>
       <r>    9.3492    1.0000 </r>
       <r>   10.0395    1.0000 </r>
       <r>   10.0436    1.0000 </r>
       <r>   10.1768    1.0000 </r>
       <r>   12.7172    1.0000 </r>
       <r>   14.1716    1.0000 </r>
       <r>   15.4289    1.0000 </r>
       <r>   17.8966    0.0000 </r>
       <r>   19.2039    0.0000 </r>
       <r>   20.1728    0.0000 </r>
       <r>   21.2729    0.0000 </r>
       <r>   23.1576    0.0000 </r>
       <r>   24.6143    0.0000 </r>
      </set>
      <set comment="kpoint 5">
       <r>   -9.6001    1.0000 </r>
       <r>   -8.2575    1.0000 </r>
       <r>   -1.3933    1.0000 </r>
       <r>    0.3602    1.0000 </r>
       <r>    2.2118    1.0000 </r>
       <r>    3.0598    1.0000 </r>
       <r>    3.4337    1.0000 </r>
       <r>    4.7066    1.0000 </r>
       <r>    6.1597    1.0000 </r>
       <r>    7.3456    1.0000 </r>
       <r>    7.7902    1.0000 </r>
       <r>    8.8051    1.0000 </r>
       <r>   10.4745    1.0000 </r>
       <r>   11.7299    1.0000 </r>
       <r>   16.7325    1.0000 </r>
       <r>   17.3036    0.1798 </r>
       <r>   18.3380    0.0000 </r>
       <r>   20.2997    0.0000 </r>
       <r>   20.4678    0.0000 </r>
       <r>   22.3700    0.0000 </r>
       <r>   22.7062    0.0000 </r>
       <r>   24.3675    0.0000 </r>
      </set>
      <set comment="kpoint 6">
       <r>   -8.2880    1.0000 </r>
       <r>   -7.1495    1.0000 </r>
       <r>   -5.3647    1.0000 </r>
       <r>   -3.5566    1.0000 </r>
       <r>    4.1923    1.0000 </r>
       <r>    5.0746    1.0000 </r>
       <r>    5.5334    1.0000 </r>
       <r>    5.6275    1.0000 </r>
       <r>    6.1317    1.0000 </r>
       <r>    7.4454    1.0000 </r>
       <r>    8.7244    1.0000 </r>
       <r>    9.7560    1.0000 </r>
       <r>   10.0722    1.0000 </r>
       <r>   11.0643    1.0000 </r>
       <r>   15.1801    1.0000 </r>
       <r>   16.5892    1.0000 </r>
       <r>   17.8714    0.0000 </r>
       <r>   18.6340    0.0000 </r>
       <r>   18.9441    0.0000 </r>
       <r>   23.3206    0.0000 </r>
       <r>   24.0014    0.0000 </r>
       <r>   25.2483    0.0000 </r>
      </set>
      <set comment="kpoint 7">
       <r>   -8.1230    1.0000 </r>
       <r>   -6.4369    1.0000 </r>
       <r>   -5.6449    1.0000 </r>
       <r>   -4.7687    1.0000 </r>
       <r>    3.2946    1.0000 </r>
       <r>    4.2963    1.0000 </r>
       <r>    6.2060    1.0000 </r>
       <r>    6.3177    1.0000 </r>
       <r>    7.6527    1.0000 </r>
       <r>    7.8612    1.0000 </r>
       <r>    8.6604    1.0000 </r>
       <r>   10.7419    1.0000 </r>
       <r>   11.7643    1.0000 </r>
       <r>   12.1288    1.0000 </r>
       <r>   12.7153    1.0000 </r>
       <r>   13.2610    1.0000 </r>
       <r>   18.3127    0.0000 </r>
       <r>   19.5191    0.0000 </r>
       <r>   19.7914    0.0000 </r>
       <r>   21.8230    0.0000 </r>
       <r>   22.7207    0.0000 </r>
       <r>   25.3785    0.0000 </r>
      </set>
      <set comment="kpoint 8">
       <r>   -9.5454    1.0000 </r>
       <r>   -8.0215    1.0000 </r>
       <r>   -1.7948    1.0000 </r>
       <r>   -1.3899    1.0000 </r>
       <r>    3.1036    1.0000 </r>
       <r>    3.3620    1.0000 </r>
       <r>    3.5766    1.0000 </r>
       <r>    4.9396    1.0000 </r>
       <r>    6.5666    1.0000 </r>
       <r>    6.7240    1.0000 </r>
       <r>    8.7802    1.0000 </r>
       <r>   10.5570    1.0000 </r>
       <r>   11.1392    1.0000 </r>
       <r>   12.7809    1.0000 </r>
       <r>   13.1773    1.0000 </r>
       <r>   16.5437    1.0000 </r>
       <r>   18.1079    0.0000 </r>
       <r>   19.5786    0.0000 </r>
       <r>   21.7144    0.0000 </r>
       <r>   21.7907    0.0000 </r>
       <r>   22.1829    0.0000 </r>
       <r>   24.5486    0.0000 </r>
      </set>
      <set comment="kpoint 9">
       <r>  -10.0045    1.0000 </r>
       <r>   -7.5776    1.0000 </r>
       <r>   -1.2248    1.0000 </r>
       <r>    0.0990    1.0000 </r>
       <r>    1.8493    1.0000 </r>
       <r>    1.9336    1.0000 </r>
       <r>    4.2564    1.0000 </r>
       <r>    5.0501    1.0000 </r>
       <r>    5.1527    1.0000 </r>
       <r>    7.2654    1.0000 </r>
       <r>    9.1715    1.0000 </r>
       <r>    9.5559    1.0000 </r>
       <r>    9.6789    1.0000 </r>
       <r>   11.9678    1.0000 </r>
       <r>   16.8788    1.0000 </r>
       <r>   17.4321    0.0031 </r>
       <r>   18.2089    0.0000 </r>
       <r>   19.3285    0.0000 </r>
       <r>   20.8341    0.0000 </r>
       <r>   23.5661    0.0000 </r>
       <r>   24.2440    0.0000 </r>
       <r>   24.7650    0.0000 </r>
      </set>
      <set comment="kpoint 10">
       <r>   -8.8240    1.0000 </r>
       <r>   -6.2457    1.0000 </r>
       <r>   -5.3473    1.0000 </r>
       <r>   -3.5885    1.0000 </r>
       <r>    2.4548    1.0000 </r>
       <r>    5.3299    1.0000 </r>
       <r>    5.6334    1.0000 </r>
       <r>    5.6684    1.0000 </r>
       <r>    7.5201    1.0000 </r>
       <r>    7.6261    1.0000 </r>
       <r>    7.7621    1.0000 </r>
       <r>    9.1879    1.0000 </r>
       <r>    9.8459    1.0000 </r>
       <r>   12.0255    1.0000 </r>
       <r>   15.1839    1.0000 </r>
       <r>   16.9911    0.9998 </r>
       <r>   17.7722    0.0000 </r>
       <r>   19.6406    0.0000 </r>
       <r>   20.8095    0.0000 </r>
       <r>   22.8639    0.0000 </r>
       <r>   24.2766    0.0000 </r>
       <r>   25.4092    0.0000 </r>
      </set>
      <set comment="kpoint 11">
       <r>   -8.2540    1.0000 </r>
       <r>   -6.3165    1.0000 </r>
       <r>   -6.2193    1.0000 </r>
       <r>   -3.6289    1.0000 </r>
       <r>    3.3729    1.0000 </r>
       <r>    3.7619    1.0000 </r>
       <r>    4.0922    1.0000 </r>
       <r>    6.4082    1.0000 </r>
       <r>    8.0739    1.0000 </r>
       <r>    8.6727    1.0000 </r>
       <r>    9.7870    1.0000 </r>
       <r>   10.7489    1.0000 </r>
       <r>   11.1031    1.0000 </r>
       <r>   11.5910    1.0000 </r>
       <r>   13.0710    1.0000 </r>
       <r>   13.3095    1.0000 </r>
       <r>   17.5937    0.0000 </r>
       <r>   21.3019    0.0000 </r>
       <r>   21.4786    0.0000 </r>
       <r>   21.6260    0.0000 </r>
       <r>   24.3560    0.0000 </r>
       <r>   24.9592    0.0000 </r>
      </set>
      <set comment="kpoint 12">
       <r>   -9.8160    1.0000 </r>
       <r>   -7.5686    1.0000 </r>
       <r>   -2.6312    1.0000 </r>
       <r>    0.0595    1.0000 </r>
       <r>    2.3738    1.0000 </r>
       <r>    3.5148    1.0000 </r>
       <r>    3.6557    1.0000 </r>
       <r>    4.3151    1.0000 </r>
       <r>    4.8375    1.0000 </r>
       <r>    7.6622    1.0000 </r>
       <r>    9.3970    1.0000 </r>
       <r>   11.2860    1.0000 </r>
       <r>   11.8434    1.0000 </r>
       <r>   12.2106    1.0000 </r>
       <r>   14.4980    1.0000 </r>
       <r>   14.6198    1.0000 </r>
       <r>   16.2171    1.0000 </r>
       <r>   21.9779    0.0000 </r>
       <r>   22.4016    0.0000 </r>
       <r>   23.5606    0.0000 </r>
       <r>   24.2358    0.0000 </r>
       <r>   24.3477    0.0000 </r>
      </set>
      <set comment="kpoint 13">
       <r>  -10.8176    1.0000 </r>
       <r>   -4.6479    1.0000 </r>
       <r>   -2.1470    1.0000 </r>
       <r>   -2.0996    1.0000 </r>
       <r>    1.7108    1.0000 </r>
       <r>    1.9643    1.0000 </r>
       <r>    3.6036    1.0000 </r>
       <r>    4.5727    1.0000 </r>
       <r>    6.1649    1.0000 </r>
       <r>    8.1516    1.0000 </r>
       <r>    9.1066    1.0000 </r>
       <r>    9.2216    1.0000 </r>
       <r>   11.8734    1.0000 </r>
       <r>   12.3777    1.0000 </r>
       <r>   15.1635    1.0000 </r>
       <r>   16.0338    1.0000 </r>
       <r>   17.3266    0.1072 </r>
       <r>   19.9639    0.0000 </r>
       <r>   21.1836    0.0000 </r>
       <r>   21.7725    0.0000 </r>
       <r>   25.4913    0.0000 </r>
       <r>   25.8222    0.0000 </r>
      </set>
      <set comment="kpoint 14">
       <r>   -9.5818    1.0000 </r>
       <r>   -6.2579    1.0000 </r>
       <r>   -3.3175    1.0000 </r>
       <r>   -1.3130    1.0000 </r>
       <r>   -1.0033    1.0000 </r>
       <r>    2.1853    1.0000 </r>
       <r>    5.8510    1.0000 </r>
       <r>    6.0431    1.0000 </r>
       <r>    6.5193    1.0000 </r>
       <r>    7.1338    1.0000 </r>
       <r>    8.5769    1.0000 </r>
       <r>   10.1500    1.0000 </r>
       <r>   11.5633    1.0000 </r>
       <r>   12.8391    1.0000 </r>
       <r>   15.3289    1.0000 </r>
       <r>   16.5807    1.0000 </r>
       <r>   19.5927    0.0000 </r>
       <r>   20.6477    0.0000 </r>
       <r>   21.1402    0.0000 </r>
       <r>   21.8788    0.0000 </r>
       <r>   23.9684    0.0000 </r>
       <r>   23.9845    0.0000 </r>
      </set>
      <set comment="kpoint 15">
       <r>   -9.1469    1.0000 </r>
       <r>   -6.9976    1.0000 </r>
       <r>   -3.4280    1.0000 </r>
       <r>   -0.8087    1.0000 </r>
       <r>   -0.2507    1.0000 </r>
       <r>    0.4020    1.0000 </r>
       <r>    4.5345    1.0000 </r>
       <r>    5.5383    1.0000 </r>
       <r>    9.1355    1.0000 </r>
       <r>    9.2540    1.0000 </r>
       <r>    9.8075    1.0000 </r>
       <r>   10.8910    1.0000 </r>
       <r>   11.7584    1.0000 </r>
       <r>   12.3952    1.0000 </r>
       <r>   12.4162    1.0000 </r>
       <r>   14.4686    1.0000 </r>
       <r>   18.9642    0.0000 </r>
       <r>   21.2626    0.0000 </r>
       <r>   22.9816    0.0000 </r>
       <r>   23.4800    0.0000 </r>
       <r>   23.9433    0.0000 </r>
       <r>   24.1505    0.0000 </r>
      </set>
[...]
       <r>    3.4959    1.0000 </r>
       <r>    3.9703    1.0000 </r>
       <r>    5.1880    1.0000 </r>
       <r>    5.3351    1.0000 </r>
       <r>    6.4816    1.0000 </r>
       <r>    7.7205    1.0000 </r>
       <r>   10.3721    1.0000 </r>
       <r>   11.9949    1.0000 </r>
       <r>   12.0347    1.0000 </r>
       <r>   15.2643    1.0000 </r>
       <r>   17.3115    0.1521 </r>
       <r>   20.3388    0.0000 </r>
       <r>   21.8863    0.0000 </r>
       <r>   24.6443    0.0000 </r>
       <r>   25.6419    0.0000 </r>
       <r>   27.3484    0.0000 </r>
      </set>
      <set comment="kpoint 30">
       <r>   -7.7167    1.0000 </r>
       <r>   -3.4018    1.0000 </r>
       <r>   -1.8764    1.0000 </r>
       <r>   -1.2182    1.0000 </r>
       <r>   -0.6065    1.0000 </r>
       <r>    1.3152    1.0000 </r>
       <r>    2.0471    1.0000 </r>
       <r>    2.3747    1.0000 </r>
       <r>    2.6073    1.0000 </r>
       <r>    4.1920    1.0000 </r>
       <r>    7.7668    1.0000 </r>
       <r>    8.9409    1.0000 </r>
       <r>   10.5718    1.0000 </r>
       <r>   13.5381    1.0000 </r>
       <r>   16.7657    1.0000 </r>
       <r>   18.4780    0.0000 </r>
       <r>   18.6029    0.0000 </r>
       <r>   21.7531    0.0000 </r>
       <r>   22.6215    0.0000 </r>
       <r>   23.2434    0.0000 </r>
       <r>   23.6452    0.0000 </r>
       <r>   26.2506    0.0000 </r>
      </set>
      <set comment="kpoint 31">
       <r>   -6.5217    1.0000 </r>
       <r>   -5.4850    1.0000 </r>
       <r>   -3.1183    1.0000 </r>
       <r>   -0.0945    1.0000 </r>
       <r>    0.6257    1.0000 </r>
       <r>    1.0067    1.0000 </r>
       <r>    1.6030    1.0000 </r>
       <r>    2.3619    1.0000 </r>
       <r>    2.6065    1.0000 </r>
       <r>    5.3342    1.0000 </r>
       <r>    7.4955    1.0000 </r>
       <r>    9.7790    1.0000 </r>
       <r>   11.8698    1.0000 </r>
       <r>   13.2613    1.0000 </r>
       <r>   14.1387    1.0000 </r>
       <r>   17.3171    0.1340 </r>
       <r>   20.0066    0.0000 </r>
       <r>   20.0327    0.0000 </r>
       <r>   23.4980    0.0000 </r>
       <r>   24.1740    0.0000 </r>
       <r>   24.1787    0.0000 </r>
       <r>   24.2453    0.0000 </r>
      </set>
      <set comment="kpoint 32">
       <r>   -8.2894    1.0000 </r>
       <r>   -3.7242    1.0000 </r>
       <r>   -2.5093    1.0000 </r>
       <r>   -1.4989    1.0000 </r>
       <r>   -0.5956    1.0000 </r>
       <r>    0.7164    1.0000 </r>
       <r>    4.4089    1.0000 </r>
       <r>    4.9548    1.0000 </r>
       <r>    6.2856    1.0000 </r>
       <r>    6.7358    1.0000 </r>
       <r>    7.5364    1.0000 </r>
       <r>    7.5852    1.0000 </r>
       <r>    8.5215    1.0000 </r>
       <r>    9.3398    1.0000 </r>
       <r>   13.8172    1.0000 </r>
       <r>   14.9470    1.0000 </r>
       <r>   16.8070    1.0000 </r>
       <r>   19.3129    0.0000 </r>
       <r>   21.8356    0.0000 </r>
       <r>   24.0324    0.0000 </r>
       <r>   27.7519    0.0000 </r>
       <r>   28.6194    0.0000 </r>
      </set>
     </set>
    </set>
   </array>
  </eigenvalues>
  <separator name="orbital magnetization" >
   <v name="MAGDIPOLOUT">      0.00000000      0.00000000      0.00000000</v>
  </separator>
  <dos>
   <i name="efermi">     17.23882118 </i>
   <total>
    <array>
     <dimension dim="1">gridpoints</dimension>
     <dimension dim="2">spin</dimension>
     <field>energy</field>
     <field>total</field>
     <field>integrated</field>
     <set>
      <set comment="spin 1">
       <r>   -12.7895     0.0000     0.0000 </r>
       <r>   -12.6449     0.0000     0.0000 </r>
       <r>   -12.5003     0.0000     0.0000 </r>
       <r>   -12.3557     0.0000     0.0000 </r>
       <r>   -12.2111     0.0000     0.0000 </r>
       <r>   -12.0665     0.0000     0.0000 </r>
       <r>   -11.9219     0.0000     0.0000 </r>
       <r>   -11.7773     0.0000     0.0000 </r>
       <r>   -11.6327     0.0000     0.0000 </r>
       <r>   -11.4881     0.0000     0.0000 </r>
       <r>   -11.3435     0.0000     0.0000 </r>
       <r>   -11.1988     0.0000     0.0000 </r>
       <r>   -11.0542     0.0002     0.0000 </r>
       <r>   -10.9096     0.0420     0.0061 </r>
       <r>   -10.7650     0.3897     0.0625 </r>
       <r>   -10.6204     0.8163     0.1805 </r>
       <r>   -10.4758     0.4514     0.2458 </r>
       <r>   -10.3312     0.0291     0.2500 </r>
       <r>   -10.1866     0.0022     0.2503 </r>
       <r>   -10.0420     0.1268     0.2686 </r>
       <r>    -9.8974     0.3291     0.3162 </r>
       <r>    -9.7528     0.3368     0.3649 </r>
       <r>    -9.6082     0.5001     0.4373 </r>
       <r>    -9.4636     0.8672     0.5627 </r>
       <r>    -9.3190     0.3852     0.6184 </r>
       <r>    -9.1744     0.2640     0.6565 </r>
       <r>    -9.0298     0.5612     0.7377 </r>
       <r>    -8.8852     0.1692     0.7621 </r>
       <r>    -8.7406     0.3847     0.8178 </r>
       <r>    -8.5960     0.3471     0.8680 </r>
       <r>    -8.4514     0.0743     0.8787 </r>
       <r>    -8.3068     0.7765     0.9910 </r>
       <r>    -8.1622     1.4787     1.2048 </r>
       <r>    -8.0176     1.0179     1.3520 </r>
       <r>    -7.8730     0.5579     1.4327 </r>
       <r>    -7.7284     0.3201     1.4789 </r>
       <r>    -7.5838     0.8959     1.6085 </r>
       <r>    -7.4392     0.5354     1.6859 </r>
       <r>    -7.2946     0.3251     1.7329 </r>
       <r>    -7.1500     0.7005     1.8342 </r>
       <r>    -7.0054     0.7267     1.9393 </r>
       <r>    -6.8608     0.4646     2.0065 </r>
       <r>    -6.7162     0.5893     2.0917 </r>
       <r>    -6.5716     0.6876     2.1911 </r>
       <r>    -6.4270     0.6482     2.2849 </r>
       <r>    -6.2824     1.1915     2.4572 </r>
       <r>    -6.1378     1.6626     2.6976 </r>
       <r>    -5.9932     0.5538     2.7777 </r>
       <r>    -5.8486     0.7146     2.8810 </r>
       <r>    -5.7040     0.5075     2.9544 </r>
       <r>    -5.5594     0.6638     3.0504 </r>
       <r>    -5.4147     0.6636     3.1463 </r>
       <r>    -5.2701     0.9807     3.2881 </r>
       <r>    -5.1255     0.6049     3.3756 </r>
       <r>    -4.9809     0.6665     3.4720 </r>
       <r>    -4.8363     0.3987     3.5296 </r>
       <r>    -4.6917     0.9430     3.6660 </r>
       <r>    -4.5471     1.1291     3.8293 </r>
       <r>    -4.4025     0.7716     3.9408 </r>
       <r>    -4.2579     1.0298     4.0897 </r>
       <r>    -4.1133     0.4931     4.1610 </r>
       <r>    -3.9687     0.3686     4.2143 </r>
       <r>    -3.8241     0.7330     4.3203 </r>
       <r>    -3.6795     1.7039     4.5667 </r>
       <r>    -3.5349     1.8185     4.8297 </r>
       <r>    -3.3903     1.0338     4.9792 </r>
       <r>    -3.2457     1.4242     5.1851 </r>
       <r>    -3.1011     1.3018     5.3734 </r>
       <r>    -2.9565     0.8320     5.4937 </r>
       <r>    -2.8119     0.4634     5.5607 </r>
       <r>    -2.6673     0.4752     5.6294 </r>
       <r>    -2.5227     0.6277     5.7202 </r>
       <r>    -2.3781     0.5706     5.8027 </r>
       <r>    -2.2335     0.4991     5.8748 </r>
       <r>    -2.0889     1.6499     6.1134 </r>
       <r>    -1.9443     0.6902     6.2132 </r>
       <r>    -1.7997     1.3061     6.4021 </r>
       <r>    -1.6551     1.8513     6.6698 </r>
       <r>    -1.5105     1.1461     6.8355 </r>
       <r>    -1.3659     1.6620     7.0759 </r>
       <r>    -1.2213     1.8518     7.3436 </r>
       <r>    -1.0767     0.7831     7.4569 </r>
       <r>    -0.9321     1.2892     7.6433 </r>
       <r>    -0.7875     0.9726     7.7839 </r>
       <r>    -0.6429     0.5818     7.8681 </r>
       <r>    -0.4983     1.4252     8.0742 </r>
       <r>    -0.3537     1.1151     8.2354 </r>
       <r>    -0.2091     0.9496     8.3727 </r>
       <r>    -0.0645     0.7563     8.4821 </r>
       <r>     0.0801     1.0188     8.6294 </r>
       <r>     0.2247     1.4109     8.8334 </r>
       <r>     0.3694     1.2704     9.0171 </r>
       <r>     0.5140     1.2980     9.2048 </r>
       <r>     0.6586     1.1622     9.3729 </r>
       <r>     0.8032     1.2455     9.5530 </r>
       <r>     0.9478     0.5043     9.6259 </r>
       <r>     1.0924     0.3995     9.6837 </r>
       <r>     1.2370     0.5495     9.7631 </r>
       <r>     1.3816     0.6845     9.8621 </r>
       <r>     1.5262     0.1521     9.8841 </r>
       <r>     1.6708     0.6347     9.9759 </r>
       <r>     1.8154     1.7062    10.2226 </r>
       <r>     1.9600     2.0495    10.5190 </r>
       <r>     2.1046     1.8327    10.7840 </r>
       <r>     2.2492     1.9928    11.0721 </r>
       <r>     2.3938     1.7679    11.3278 </r>
       <r>     2.5384     2.1416    11.6375 </r>
       <r>     2.6830     1.7866    11.8958 </r>
       <r>     2.8276     0.4402    11.9595 </r>
       <r>     2.9722     1.1105    12.1200 </r>
       <r>     3.1168     1.9228    12.3981 </r>
       <r>     3.2614     1.9115    12.6745 </r>
       <r>     3.4060     2.0315    12.9682 </r>
       <r>     3.5506     2.6707    13.3544 </r>
       <r>     3.6952     2.3425    13.6932 </r>
       <r>     3.8398     0.7802    13.8060 </r>
       <r>     3.9844     0.6517    13.9002 </r>
       <r>     4.1290     1.4571    14.1109 </r>
       <r>     4.2736     1.5684    14.3377 </r>
       <r>     4.4182     1.7706    14.5938 </r>
       <r>     4.5628     1.5581    14.8191 </r>
       <r>     4.7074     1.5055    15.0368 </r>
       <r>     4.8520     1.1570    15.2041 </r>
       <r>     4.9966     1.6340    15.4403 </r>
       <r>     5.1412     2.1629    15.7531 </r>
       <r>     5.2858     2.2171    16.0737 </r>
       <r>     5.4304     1.9186    16.3511 </r>
       <r>     5.5750     1.7432    16.6032 </r>
       <r>     5.7196     2.6457    16.9858 </r>
       <r>     5.8642     1.5035    17.2032 </r>
       <r>     6.0088     0.7982    17.3186 </r>
       <r>     6.1535     1.7590    17.5730 </r>
       <r>     6.2981     2.2523    17.8987 </r>
       <r>     6.4427     1.2426    18.0784 </r>
       <r>     6.5873     1.4144    18.2829 </r>
       <r>     6.7319     1.4486    18.4924 </r>
       <r>     6.8765     1.3774    18.6915 </r>
       <r>     7.0211     1.4368    18.8993 </r>
       <r>     7.1657     1.5423    19.1223 </r>
       <r>     7.3103     1.7529    19.3758 </r>
       <r>     7.4549     1.8906    19.6492 </r>
       <r>     7.5995     2.4513    20.0036 </r>
       <r>     7.7441     2.6690    20.3896 </r>
       <r>     7.8887     1.5188    20.6092 </r>
       <r>     8.0333     1.1658    20.7778 </r>
       <r>     8.1779     1.4350    20.9853 </r>
       <r>     8.3225     1.2759    21.1698 </r>
       <r>     8.4671     1.5289    21.3908 </r>
       <r>     8.6117     1.6838    21.6343 </r>
       <r>     8.7563     1.9657    21.9186 </r>
       <r>     8.9009     1.1531    22.0853 </r>
       <r>     9.0455     0.8155    22.2033 </r>
       <r>     9.1901     1.7325    22.4538 </r>
       <r>     9.3347     2.2880    22.7846 </r>
       <r>     9.4793     1.3702    22.9828 </r>
       <r>     9.6239     1.2221    23.1595 </r>
       <r>     9.7685     2.0294    23.4529 </r>
       <r>     9.9131     2.0752    23.7530 </r>
       <r>    10.0577     1.8843    24.0255 </r>
       <r>    10.2023     1.3088    24.2147 </r>
       <r>    10.3469     0.9459    24.3515 </r>
       <r>    10.4915     1.5228    24.5717 </r>
       <r>    10.6361     1.5402    24.7944 </r>
       <r>    10.7807     1.1607    24.9623 </r>
       <r>    10.9253     0.7169    25.0659 </r>
       <r>    11.0699     0.8625    25.1906 </r>
       <r>    11.2145     1.2870    25.3767 </r>
       <r>    11.3591     1.4097    25.5806 </r>
       <r>    11.5037     0.9738    25.7214 </r>
       <r>    11.6483     1.4873    25.9365 </r>
       <r>    11.7929     2.0314    26.2302 </r>
       <r>    11.9375     2.2444    26.5548 </r>
       <r>    12.0822     1.6345    26.7911 </r>
       <r>    12.2268     0.8495    26.9140 </r>
       <r>    12.3714     1.2264    27.0913 </r>
       <r>    12.5160     1.9677    27.3759 </r>
       <r>    12.6606     0.7031    27.4775 </r>
       <r>    12.8052     1.3252    27.6692 </r>
       <r>    12.9498     1.3352    27.8622 </r>
       <r>    13.0944     1.5393    28.0848 </r>
       <r>    13.2390     2.3003    28.4174 </r>
       <r>    13.3836     1.6204    28.6517 </r>
       <r>    13.5282     0.8992    28.7818 </r>
       <r>    13.6728     0.8528    28.9051 </r>
       <r>    13.8174     0.6840    29.0040 </r>
       <r>    13.9620     0.4804    29.0735 </r>
       <r>    14.1066     0.7018    29.1749 </r>
       <r>    14.2512     1.2122    29.3502 </r>
       <r>    14.3958     0.6691    29.4470 </r>
       <r>    14.5404     0.9816    29.5889 </r>
       <r>    14.6850     0.9948    29.7328 </r>
       <r>    14.8296     0.1542    29.7551 </r>
       <r>    14.9742     0.7380    29.8618 </r>
       <r>    15.1188     1.1709    30.0311 </r>
       <r>    15.2634     1.2445    30.2111 </r>
       <r>    15.4080     1.0287    30.3598 </r>
       <r>    15.5526     0.5536    30.4399 </r>
       <r>    15.6972     0.4939    30.5113 </r>
       <r>    15.8418     0.5558    30.5917 </r>
       <r>    15.9864     0.5584    30.6724 </r>
       <r>    16.1310     0.7353    30.7787 </r>
       <r>    16.2756     0.7630    30.8891 </r>
       <r>    16.4202     0.3496    30.9396 </r>
       <r>    16.5648     0.6745    31.0371 </r>
       <r>    16.7094     1.5785    31.2654 </r>
       <r>    16.8540     1.9059    31.5410 </r>
       <r>    16.9986     1.1846    31.7123 </r>
       <r>    17.1432     0.9037    31.8430 </r>
       <r>    17.2878     1.8577    32.1116 </r>
       <r>    17.4324     2.0519    32.4083 </r>
       <r>    17.5770     1.3387    32.6019 </r>
       <r>    17.7216     0.8516    32.7250 </r>
       <r>    17.8663     1.2565    32.9067 </r>
       <r>    18.0109     1.1078    33.0669 </r>
       <r>    18.1555     2.0128    33.3580 </r>
       <r>    18.3001     1.8799    33.6298 </r>
       <r>    18.4447     0.9279    33.7640 </r>
       <r>    18.5893     0.6072    33.8518 </r>
       <r>    18.7339     0.5547    33.9320 </r>
       <r>    18.8785     0.4901    34.0029 </r>
       <r>    19.0231     1.3478    34.1978 </r>
       <r>    19.1677     0.5375    34.2755 </r>
       <r>    19.3123     1.0846    34.4323 </r>
       <r>    19.4569     1.2336    34.6107 </r>
       <r>    19.6015     1.2500    34.7915 </r>
       <r>    19.7461     1.7625    35.0463 </r>
       <r>    19.8907     1.1809    35.2171 </r>
       <r>    20.0353     1.4109    35.4211 </r>
       <r>    20.1799     0.7940    35.5359 </r>
       <r>    20.3245     0.8067    35.6526 </r>
       <r>    20.4691     1.2356    35.8313 </r>
       <r>    20.6137     1.3021    36.0196 </r>
       <r>    20.7583     0.9750    36.1605 </r>
       <r>    20.9029     1.4601    36.3717 </r>
       <r>    21.0475     1.2647    36.5546 </r>
       <r>    21.1921     1.7044    36.8010 </r>
       <r>    21.3367     1.9477    37.0827 </r>
       <r>    21.4813     1.0287    37.2314 </r>
       <r>    21.6259     0.8287    37.3513 </r>
       <r>    21.7705     1.5488    37.5752 </r>
       <r>    21.9151     2.3290    37.9120 </r>
       <r>    22.0597     1.0991    38.0709 </r>
       <r>    22.2043     0.7093    38.1735 </r>
       <r>    22.3489     0.7643    38.2840 </r>
       <r>    22.4935     0.8583    38.4081 </r>
       <r>    22.6381     0.5878    38.4931 </r>
       <r>    22.7827     1.1199    38.6551 </r>
       <r>    22.9273     1.4701    38.8677 </r>
       <r>    23.0719     1.3688    39.0656 </r>
       <r>    23.2165     2.0247    39.3584 </r>
       <r>    23.3611     2.2758    39.6874 </r>
       <r>    23.5057     1.9898    39.9752 </r>
       <r>    23.6504     1.8581    40.2439 </r>
       <r>    23.7950     0.4777    40.3130 </r>
       <r>    23.9396     0.5892    40.3982 </r>
       <r>    24.0842     1.5365    40.6203 </r>
       <r>    24.2288     2.0777    40.9208 </r>
       <r>    24.3734     2.9459    41.3468 </r>
       <r>    24.5180     1.5936    41.5772 </r>
       <r>    24.6626     1.4656    41.7891 </r>
       <r>    24.8072     1.7876    42.0476 </r>
       <r>    24.9518     1.3649    42.2450 </r>
       <r>    25.0964     1.1899    42.4171 </r>
       <r>    25.2410     1.0395    42.5674 </r>
       <r>    25.3856     1.3039    42.7559 </r>
       <r>    25.5302     1.1909    42.9281 </r>
       <r>    25.6748     0.7494    43.0365 </r>
       <r>    25.8194     0.6053    43.1240 </r>
       <r>    25.9640     0.6145    43.2129 </r>
       <r>    26.1086     0.6124    43.3014 </r>
       <r>    26.2532     0.3024    43.3452 </r>
       <r>    26.3978     0.3745    43.3993 </r>
       <r>    26.5424     0.5008    43.4717 </r>
       <r>    26.6870     0.2747    43.5114 </r>
       <r>    26.8316     0.3021    43.5551 </r>
       <r>    26.9762     0.0559    43.5632 </r>
       <r>    27.1208     0.2477    43.5990 </r>
       <r>    27.2654     0.5955    43.6851 </r>
       <r>    27.4100     0.3902    43.7416 </r>
       <r>    27.5546     0.5110    43.8155 </r>
       <r>    27.6992     0.4915    43.8865 </r>
       <r>    27.8438     0.3106    43.9314 </r>
       <r>    27.9884     0.0417    43.9375 </r>
       <r>    28.1330     0.0002    43.9375 </r>
       <r>    28.2776     0.0000    43.9375 </r>
       <r>    28.4222     0.0011    43.9377 </r>
       <r>    28.5668     0.0976    43.9518 </r>
       <r>    28.7114     0.2917    43.9940 </r>
       <r>    28.8560     0.0416    44.0000 </r>
       <r>    29.0006     0.0002    44.0000 </r>
       <r>    29.1452     0.0000    44.0000 </r>
       <r>    29.2898     0.0000    44.0000 </r>
       <r>    29.4345     0.0000    44.0000 </r>
       <r>    29.5791     0.0000    44.0000 </r>
       <r>    29.7237     0.0000    44.0000 </r>
       <r>    29.8683     0.0000    44.0000 </r>
       <r>    30.0129     0.0000    44.0000 </r>
       <r>    30.1575     0.0000    44.0000 </r>
       <r>    30.3021     0.0000    44.0000 </r>
       <r>    30.4467     0.0000    44.0000 </r>
       <r>    30.5913     0.0000    44.0000 </r>
      </set>
     </set>
    </array>
   </total>
  </dos>
 </calculation>
 <structure name="finalpos" >
  <crystal>
   <varray name="basis" >
    <v>      -0.84739173       2.94181049       1.19107446 </v>
    <v>       3.66580739       1.17119421      -0.88460293 </v>
    <v>      -1.19839288       0.87466292      -2.07163611 </v>
   </varray>
   <i name="volume">     32.35046659 </i>
   <varray name="rec_basis" >
    <v>      -0.05108300       0.26751765       0.14249861 </v>
    <v>       0.22058877       0.09838691      -0.08606561 </v>
    <v>      -0.12356278       0.11179574      -0.36403095 </v>
   </varray>
  </crystal>
  <varray name="positions" >
   <v>       0.12051232       0.13489446       0.61813201 </v>
   <v>       0.37948768       0.36510554       0.88186799 </v>
   <v>       0.12051232       0.63489446       0.11813201 </v>
   <v>       0.37948768       0.86510554       0.38186799 </v>
   <v>       0.62051232       0.13489446       0.11813201 </v>
   <v>       0.87948768       0.36510554       0.38186799 </v>
   <v>       0.62051232       0.63489446       0.61813201 </v>
   <v>       0.87948768       0.86510554       0.88186799 </v>
  </varray>
  <varray name="selective"  type="logical" >
   <v type="logical" >  T  T  T </v>
   <v type="logical" >  T  T  T </v>
   <v type="logical" >  T  T  T </v>
   <v type="logical" >  T  T  T </v>
   <v type="logical" >  T  T  T </v>
   <v type="logical" >  T  T  T </v>
   <v type="logical" >  T  T  T </v>
   <v type="logical" >  T  T  T </v>
  </varray>
  <nose>
   <v>      -3.00000000       0.00000000       0.00010000       0.00010000 </v>
  </nose>
 </structure>
</modeling>
