unknown system                          
           1
    -0.847392    2.941810    1.191074
     3.665807    1.171194   -0.884603
    -1.198393    0.874663   -2.071636
   C 
     8
Direct configuration=     1
   0.12500000  0.12500000  0.62500000
   0.37500000  0.37500000  0.87500000
   0.12500000  0.62500000  0.12500000
   0.37500000  0.87500000  0.37500000
   0.62500000  0.12500000  0.12500000
   0.87500000  0.37500000  0.37500000
   0.62500000  0.62500000  0.62500000
   0.87500000  0.87500000  0.87500000
Direct configuration=     2
   0.10718235  0.14631482  0.61484191
   0.39281765  0.35368518  0.88515809
   0.10718235  0.64631482  0.11484191
   0.39281765  0.85368518  0.38515809
   0.60718235  0.14631482  0.11484191
   0.89281765  0.35368518  0.38515809
   0.60718235  0.64631482  0.61484191
   0.89281765  0.85368518  0.88515809
Direct configuration=     3
   0.11765031  0.13379225  0.62080984
   0.38234969  0.36620775  0.87919016
   0.11765031  0.63379225  0.12080984
   0.38234969  0.86620775  0.37919016
   0.61765031  0.13379225  0.12080984
   0.88234969  0.36620775  0.37919016
   0.61765031  0.63379225  0.62080984
   0.88234969  0.86620775  0.87919016
Direct configuration=     4
   0.11779968  0.13361356  0.62089500
   0.38220032  0.36638644  0.87910500
   0.11779968  0.63361356  0.12089500
   0.38220032  0.86638644  0.37910500
   0.61779968  0.13361356  0.12089500
   0.88220032  0.36638644  0.37910500
   0.61779968  0.63361356  0.62089500
   0.88220032  0.86638644  0.87910500
Direct configuration=     5
   0.12351423  0.13727064  0.61437829
   0.37648577  0.36272936  0.88562171
   0.12351423  0.63727064  0.11437829
   0.37648577  0.86272936  0.38562171
   0.62351423  0.13727064  0.11437829
   0.87648577  0.36272936  0.38562171
   0.62351423  0.63727064  0.61437829
   0.87648577  0.86272936  0.88562171
Direct configuration=     6
   0.12029337  0.13520942  0.61805127
   0.37970663  0.36479058  0.88194873
   0.12029337  0.63520942  0.11805127
   0.37970663  0.86479058  0.38194873
   0.62029337  0.13520942  0.11805127
   0.87970663  0.36479058  0.38194873
   0.62029337  0.63520942  0.61805127
   0.87970663  0.86479058  0.88194873
Direct configuration=     7
   0.12059965  0.13480090  0.61807079
   0.37940035  0.36519910  0.88192921
   0.12059965  0.63480090  0.11807079
   0.37940035  0.86519910  0.38192921
   0.62059965  0.13480090  0.11807079
   0.87940035  0.36519910  0.38192921
   0.62059965  0.63480090  0.61807079
   0.87940035  0.86519910  0.88192921
Direct configuration=     8
   0.12052022  0.13490685  0.61806572
   0.37947978  0.36509315  0.88193428
   0.12052022  0.63490685  0.11806572
   0.37947978  0.86509315  0.38193428
   0.62052022  0.13490685  0.11806572
   0.87947978  0.36509315  0.38193428
   0.62052022  0.63490685  0.61806572
   0.87947978  0.86509315  0.88193428
Direct configuration=     9
   0.12050137  0.13487728  0.61822400
   0.37949863  0.36512272  0.88177600
   0.12050137  0.63487728  0.11822400
   0.37949863  0.86512272  0.38177600
   0.62050137  0.13487728  0.11822400
   0.87949863  0.36512272  0.38177600
   0.62050137  0.63487728  0.61822400
   0.87949863  0.86512272  0.88177600
Direct configuration=    10
   0.12051232  0.13489446  0.61813201
   0.37948768  0.36510554  0.88186799
   0.12051232  0.63489446  0.11813201
   0.37948768  0.86510554  0.38186799
   0.62051232  0.13489446  0.11813201
   0.87948768  0.36510554  0.38186799
   0.62051232  0.63489446  0.61813201
   0.87948768  0.86510554  0.88186799
