unknown system                          
           1
     2.466000    0.000000    0.000000
     1.233000    2.135619    0.000000
     0.000000    0.000000   20.000000
   C 
     2
unknown system                          
           1
     2.466000    0.000000    0.000000
     1.233000    2.135619    0.000000
     0.000000    0.000000   20.000000
   C 
     2
Direct configuration=     1
   0.33333333  0.33333333  0.50000000
   0.66666667  0.66666667  0.50000000
unknown system                          
           1
     2.466503   -0.000000   -0.000000
     1.233251    2.136054   -0.000000
    -0.000000    0.000000   19.991848
   C 
     2
Direct configuration=     2
   0.33333333  0.33333333  0.50000000
   0.66666667  0.66666667  0.50000000
unknown system                          
           1
     2.468012   -0.000000   -0.000000
     1.234006    2.137361   -0.000000
    -0.000000    0.000000   19.967402
   C 
     2
Direct configuration=     3
   0.33333333  0.33333333  0.50000000
   0.66666667  0.66666667  0.50000000
unknown system                          
           1
     2.468333   -0.000000   -0.000000
     1.234166    2.137639   -0.000000
    -0.000000    0.000000   19.962214
   C 
     2
Direct configuration=     4
   0.33333333  0.33333333  0.50000000
   0.66666667  0.66666667  0.50000000
