    8    8  300    1
  0.5643294E+01  0.3560745E-09  0.3560745E-09  0.3560745E-09  0.1000000E-15
  1.000000000000000E-004
  CAR 
 unknown system                          
     32      4     22
 
  0.1250000E+00  0.1250000E+00  0.1250000E+00  0.1250000E+00
    1      -11.322431   1.000000
    2       -4.765433   1.000000
    3       -4.765433   1.000000
    4       -4.765433   1.000000
    5       -0.991802   1.000000
    6       -0.991802   1.000000
    7       -0.991802   1.000000
    8        2.346359   1.000000
    9        2.346359   1.000000
   10        2.346359   1.000000
   11        3.758877   1.000000
   12        3.758877   1.000000
   13        3.758877   1.000000
   14        7.243293   1.000000
   15        8.999550   1.000000
   16        8.999550   1.000000
   17       14.608131   0.000000
   18       14.608131   0.000000
   19       14.608131   0.000000
   20       16.075800   0.000000
   21       16.075800   0.000000
   22       16.494397   0.000000
 
  0.3750000E+00  0.1250000E+00  0.1250000E+00  0.3750000E+00
    1      -10.183694   1.000000
    2       -7.953182   1.000000
    3       -4.032412   1.000000
    4       -4.032412   1.000000
    5       -1.482357   1.000000
    6       -1.482357   1.000000
    7        1.279566   1.000000
    8        1.279566   1.000000
    9        2.155625   1.000000
   10        3.335794   1.000000
   11        3.335794   1.000000
   12        4.449700   1.000000
   13        4.580451   1.000000
   14        4.823316   1.000000
   15        6.789356   1.000000
   16        7.623614   1.000000
   17       14.804189   0.000000
   18       15.466321   0.000000
   19       17.155431   0.000000
   20       17.155431   0.000000
   21       18.942947   0.000000
   22       18.982423   0.000000
 
  0.3750000E+00  0.3750000E+00  0.1250000E+00  0.3750000E+00
    1       -9.066262   1.000000
    2       -6.906961   1.000000
    3       -6.906961   1.000000
    4       -5.065313   1.000000
    5       -1.890955   1.000000
    6       -0.159540   1.000000
    7       -0.159540   1.000000
    8        1.914808   1.000000
    9        1.940305   1.000000
   10        3.397577   1.000000
   11        3.397577   1.000000
   12        5.303955   1.000000
   13        5.467967   1.000000
   14        5.588657   1.000000
   15        5.588657   1.000000
   16        7.818577   1.000000
   17       16.474574   0.000000
   18       17.589490   0.000000
   19       17.589490   0.000000
   20       17.742247   0.000000
   21       18.251558   0.000000
   22       19.231135   0.000000
 
  0.3750000E+00  0.3750000E+00  0.3750000E+00  0.1250000E+00
    1       -7.987655   1.000000
    2       -6.061890   1.000000
    3       -6.061890   1.000000
    4       -6.061890   1.000000
    5       -2.849423   1.000000
    6       -2.849423   1.000000
    7       -2.849423   1.000000
    8       -0.980680   1.000000
    9        5.516188   1.000000
   10        5.516188   1.000000
   11        5.516188   1.000000
   12        6.143110   1.000000
   13        6.143110   1.000000
   14        6.143110   1.000000
   15        7.133610   1.000000
   16        7.133610   1.000000
   17       17.239421   0.000000
   18       17.239421   0.000000
   19       17.239421   0.000000
   20       18.008317   0.000000
   21       18.008317   0.000000
   22       18.274351   0.000000
