   8   8   0   0
  0.5328450E+01  0.3600213E-09  0.3560745E-09  0.3699981E-09  0.5000000E-15
  1.000000000000000E-004
  CAR 
 unknown system                          
     23.64690794    -13.54012136  301     11.12102096      1.00000000
    -13.540  0.0000E+00  0.0000E+00
    -13.416  0.0000E+00  0.0000E+00
    -13.292  0.0000E+00  0.0000E+00
    -13.168  0.0000E+00  0.0000E+00
    -13.044  0.0000E+00  0.0000E+00
    -12.920  0.0000E+00  0.0000E+00
    -12.796  0.0000E+00  0.0000E+00
    -12.672  0.0000E+00  0.0000E+00
    -12.548  0.0000E+00  0.0000E+00
    -12.425  0.3732E-18  0.4626E-19
    -12.301  0.1544E-12  0.1913E-13
    -12.177  0.3221E-08  0.3992E-09
    -12.053  0.3572E-05  0.4432E-06
    -11.929  0.2513E-03  0.3159E-04
    -11.805  0.1669E-02  0.2385E-03
    -11.681  0.2064E-02  0.4943E-03
    -11.557  0.1036E-02  0.6227E-03
    -11.433  0.8589E-03  0.7292E-03
    -11.309  0.7736E-03  0.8251E-03
    -11.185  0.6688E-04  0.8333E-03
    -11.061  0.1004E-03  0.8458E-03
    -10.937  0.1497E-02  0.1031E-02
    -10.813  0.3328E-02  0.1444E-02
    -10.689  0.3177E-02  0.1838E-02
    -10.565  0.2351E-02  0.2129E-02
    -10.441  0.2125E-02  0.2392E-02
    -10.317  0.1926E-02  0.2631E-02
    -10.193  0.3838E-02  0.3107E-02
    -10.069  0.2562E-02  0.3425E-02
     -9.945  0.1917E-02  0.3662E-02
     -9.821  0.2044E-02  0.3915E-02
     -9.697  0.1990E-02  0.4162E-02
     -9.574  0.4468E-02  0.4716E-02
     -9.450  0.2153E-02  0.4983E-02
     -9.326  0.2267E-03  0.5011E-02
     -9.202  0.1270E-02  0.5168E-02
     -9.078  0.1768E-02  0.5387E-02
     -8.954  0.9174E-03  0.5501E-02
     -8.830  0.4373E-02  0.6043E-02
     -8.706  0.5136E-02  0.6680E-02
     -8.582  0.3101E-02  0.7064E-02
     -8.458  0.4036E-02  0.7564E-02
     -8.334  0.6148E-02  0.8327E-02
     -8.210  0.6026E-02  0.9073E-02
     -8.086  0.6061E-02  0.9825E-02
     -7.962  0.3839E-02  0.1030E-01
     -7.838  0.5585E-02  0.1099E-01
     -7.714  0.5766E-02  0.1171E-01
     -7.590  0.4043E-02  0.1221E-01
     -7.466  0.3048E-02  0.1259E-01
     -7.342  0.1824E-02  0.1281E-01
     -7.218  0.3714E-02  0.1327E-01
     -7.094  0.3582E-02  0.1372E-01
     -6.970  0.1472E-02  0.1390E-01
     -6.846  0.1719E-02  0.1411E-01
     -6.722  0.1821E-02  0.1434E-01
     -6.599  0.1615E-02  0.1454E-01
     -6.475  0.4153E-02  0.1505E-01
     -6.351  0.5052E-02  0.1568E-01
     -6.227  0.5757E-02  0.1639E-01
     -6.103  0.6902E-02  0.1725E-01
     -5.979  0.4705E-02  0.1783E-01
     -5.855  0.3682E-02  0.1829E-01
     -5.731  0.2848E-02  0.1864E-01
     -5.607  0.3402E-02  0.1906E-01
     -5.483  0.4260E-02  0.1959E-01
     -5.359  0.3947E-02  0.2008E-01
     -5.235  0.3777E-02  0.2055E-01
     -5.111  0.3778E-02  0.2102E-01
     -4.987  0.4947E-02  0.2163E-01
     -4.863  0.2582E-02  0.2195E-01
     -4.739  0.1858E-02  0.2218E-01
     -4.615  0.1248E-02  0.2234E-01
     -4.491  0.1332E-02  0.2250E-01
     -4.367  0.2994E-02  0.2287E-01
     -4.243  0.5584E-02  0.2356E-01
     -4.119  0.3074E-02  0.2394E-01
     -3.995  0.3350E-02  0.2436E-01
     -3.871  0.3788E-02  0.2483E-01
     -3.748  0.6376E-02  0.2562E-01
     -3.624  0.5476E-02  0.2630E-01
     -3.500  0.1807E-02  0.2652E-01
     -3.376  0.1711E-02  0.2673E-01
     -3.252  0.3411E-02  0.2716E-01
     -3.128  0.4125E-02  0.2767E-01
     -3.004  0.3843E-02  0.2815E-01
     -2.880  0.4807E-02  0.2874E-01
     -2.756  0.4297E-02  0.2927E-01
     -2.632  0.4610E-02  0.2985E-01
     -2.508  0.2849E-02  0.3020E-01
     -2.384  0.2921E-02  0.3056E-01
     -2.260  0.5383E-03  0.3063E-01
     -2.136  0.6413E-03  0.3071E-01
     -2.012  0.2567E-02  0.3102E-01
     -1.888  0.4660E-02  0.3160E-01
     -1.764  0.5169E-02  0.3224E-01
     -1.640  0.3269E-02  0.3265E-01
     -1.516  0.4846E-02  0.3325E-01
     -1.392  0.4848E-02  0.3385E-01
     -1.268  0.6295E-02  0.3463E-01
     -1.144  0.6179E-02  0.3540E-01
     -1.020  0.3600E-02  0.3584E-01
     -0.897  0.4612E-02  0.3641E-01
     -0.773  0.5589E-02  0.3711E-01
     -0.649  0.5762E-02  0.3782E-01
     -0.525  0.3866E-02  0.3830E-01
     -0.401  0.4316E-02  0.3884E-01
     -0.277  0.8930E-02  0.3994E-01
     -0.153  0.9664E-02  0.4114E-01
     -0.029  0.5516E-02  0.4182E-01
      0.095  0.1965E-02  0.4207E-01
      0.219  0.1973E-02  0.4231E-01
      0.343  0.3513E-02  0.4275E-01
      0.467  0.5916E-02  0.4348E-01
      0.591  0.7753E-02  0.4444E-01
      0.715  0.8135E-02  0.4545E-01
      0.839  0.9272E-02  0.4660E-01
      0.963  0.8990E-02  0.4771E-01
      1.087  0.6692E-02  0.4854E-01
      1.211  0.6188E-02  0.4931E-01
      1.335  0.5349E-02  0.4997E-01
      1.459  0.3418E-02  0.5040E-01
      1.583  0.3461E-02  0.5083E-01
      1.707  0.4013E-02  0.5132E-01
      1.831  0.4698E-02  0.5191E-01
      1.954  0.5751E-02  0.5262E-01
      2.078  0.7562E-02  0.5356E-01
      2.202  0.6022E-02  0.5430E-01
      2.326  0.5657E-02  0.5500E-01
      2.450  0.6809E-02  0.5585E-01
      2.574  0.5386E-02  0.5652E-01
      2.698  0.3313E-02  0.5693E-01
      2.822  0.7375E-02  0.5784E-01
      2.946  0.8829E-02  0.5893E-01
      3.070  0.5386E-02  0.5960E-01
      3.194  0.4303E-02  0.6014E-01
      3.318  0.9862E-02  0.6136E-01
      3.442  0.1129E-01  0.6276E-01
      3.566  0.8024E-02  0.6375E-01
      3.690  0.7419E-02  0.6467E-01
      3.814  0.9169E-02  0.6581E-01
      3.938  0.6620E-02  0.6663E-01
      4.062  0.6058E-02  0.6738E-01
      4.186  0.5158E-02  0.6802E-01
      4.310  0.5845E-02  0.6874E-01
      4.434  0.7814E-02  0.6971E-01
      4.558  0.7602E-02  0.7066E-01
      4.682  0.9880E-02  0.7188E-01
      4.805  0.1171E-01  0.7333E-01
      4.929  0.6557E-02  0.7414E-01
      5.053  0.6892E-02  0.7500E-01
      5.177  0.1012E-01  0.7625E-01
      5.301  0.6854E-02  0.7710E-01
      5.425  0.6122E-02  0.7786E-01
      5.549  0.3821E-02  0.7833E-01
      5.673  0.2842E-02  0.7869E-01
      5.797  0.3823E-02  0.7916E-01
      5.921  0.1777E-02  0.7938E-01
      6.045  0.1555E-02  0.7957E-01
      6.169  0.2325E-02  0.7986E-01
      6.293  0.3768E-02  0.8033E-01
      6.417  0.6333E-02  0.8111E-01
      6.541  0.6499E-02  0.8192E-01
      6.665  0.3113E-02  0.8231E-01
      6.789  0.2767E-02  0.8265E-01
      6.913  0.2413E-02  0.8295E-01
      7.037  0.2212E-02  0.8322E-01
      7.161  0.4391E-02  0.8377E-01
      7.285  0.4695E-02  0.8435E-01
      7.409  0.4136E-02  0.8486E-01
      7.533  0.5354E-02  0.8552E-01
      7.656  0.5503E-02  0.8621E-01
      7.780  0.6522E-02  0.8701E-01
      7.904  0.3391E-02  0.8743E-01
      8.028  0.2421E-02  0.8774E-01
      8.152  0.4061E-02  0.8824E-01
      8.276  0.6468E-02  0.8904E-01
      8.400  0.5695E-02  0.8975E-01
      8.524  0.5201E-02  0.9039E-01
      8.648  0.4646E-02  0.9097E-01
      8.772  0.6349E-02  0.9175E-01
      8.896  0.7800E-02  0.9272E-01
      9.020  0.7056E-02  0.9360E-01
      9.144  0.6032E-02  0.9434E-01
      9.268  0.5873E-02  0.9507E-01
      9.392  0.3100E-02  0.9546E-01
      9.516  0.4345E-02  0.9599E-01
      9.640  0.7964E-02  0.9698E-01
      9.764  0.5830E-02  0.9770E-01
      9.888  0.5852E-02  0.9843E-01
     10.012  0.6119E-02  0.9919E-01
     10.136  0.5665E-02  0.9989E-01
     10.260  0.6064E-02  0.1006E+00
     10.384  0.5157E-02  0.1013E+00
     10.507  0.4507E-02  0.1018E+00
     10.631  0.5538E-02  0.1025E+00
     10.755  0.9414E-02  0.1037E+00
     10.879  0.8799E-02  0.1048E+00
     11.003  0.7858E-02  0.1058E+00
     11.127  0.7687E-02  0.1067E+00
     11.251  0.5797E-02  0.1074E+00
     11.375  0.4672E-02  0.1080E+00
     11.499  0.4545E-02  0.1086E+00
     11.623  0.3673E-02  0.1090E+00
     11.747  0.4176E-02  0.1095E+00
     11.871  0.6869E-02  0.1104E+00
     11.995  0.7429E-02  0.1113E+00
     12.119  0.4318E-02  0.1119E+00
     12.243  0.2745E-02  0.1122E+00
     12.367  0.5474E-02  0.1129E+00
     12.491  0.6705E-02  0.1137E+00
     12.615  0.3767E-02  0.1142E+00
     12.739  0.3823E-02  0.1146E+00
     12.863  0.5472E-02  0.1153E+00
     12.987  0.6766E-02  0.1162E+00
     13.111  0.3436E-02  0.1166E+00
     13.235  0.8789E-03  0.1167E+00
     13.358  0.1855E-02  0.1169E+00
     13.482  0.2014E-02  0.1172E+00
     13.606  0.5869E-02  0.1179E+00
     13.730  0.5903E-02  0.1186E+00
     13.854  0.2663E-02  0.1190E+00
     13.978  0.6286E-02  0.1197E+00
     14.102  0.7195E-02  0.1206E+00
     14.226  0.3493E-02  0.1211E+00
     14.350  0.1377E-02  0.1212E+00
     14.474  0.1110E-02  0.1214E+00
     14.598  0.3260E-02  0.1218E+00
     14.722  0.3824E-02  0.1223E+00
     14.846  0.8522E-02  0.1233E+00
     14.970  0.1229E-01  0.1248E+00
     15.094  0.6720E-02  0.1257E+00
     15.218  0.4900E-02  0.1263E+00
     15.342  0.5382E-02  0.1269E+00
     15.466  0.2825E-02  0.1273E+00
     15.590  0.2509E-02  0.1276E+00
     15.714  0.4049E-02  0.1281E+00
     15.838  0.4821E-02  0.1287E+00
     15.962  0.5170E-02  0.1293E+00
     16.086  0.8666E-02  0.1304E+00
     16.210  0.1033E-01  0.1317E+00
     16.333  0.5012E-02  0.1323E+00
     16.457  0.3343E-02  0.1327E+00
     16.581  0.4801E-02  0.1333E+00
     16.705  0.5360E-02  0.1340E+00
     16.829  0.4920E-02  0.1346E+00
     16.953  0.6589E-02  0.1354E+00
     17.077  0.4141E-02  0.1359E+00
     17.201  0.3226E-02  0.1363E+00
     17.325  0.4289E-02  0.1369E+00
     17.449  0.3699E-02  0.1373E+00
     17.573  0.3337E-02  0.1377E+00
     17.697  0.3331E-02  0.1381E+00
     17.821  0.6235E-02  0.1389E+00
     17.945  0.6508E-02  0.1397E+00
     18.069  0.5738E-02  0.1404E+00
     18.193  0.3872E-02  0.1409E+00
     18.317  0.2858E-02  0.1413E+00
     18.441  0.2474E-02  0.1416E+00
     18.565  0.2128E-02  0.1418E+00
     18.689  0.3453E-02  0.1423E+00
     18.813  0.3921E-02  0.1428E+00
     18.937  0.4579E-02  0.1433E+00
     19.061  0.4200E-02  0.1438E+00
     19.184  0.3723E-02  0.1443E+00
     19.308  0.1876E-02  0.1445E+00
     19.432  0.9131E-03  0.1447E+00
     19.556  0.1706E-02  0.1449E+00
     19.680  0.1874E-02  0.1451E+00
     19.804  0.2324E-02  0.1454E+00
     19.928  0.1847E-02  0.1456E+00
     20.052  0.1184E-02  0.1458E+00
     20.176  0.5524E-03  0.1458E+00
     20.300  0.2586E-04  0.1458E+00
     20.424  0.4971E-05  0.1458E+00
     20.548  0.2748E-03  0.1459E+00
     20.672  0.1482E-02  0.1461E+00
     20.796  0.1581E-02  0.1462E+00
     20.920  0.1222E-02  0.1464E+00
     21.044  0.4612E-03  0.1465E+00
     21.168  0.1668E-04  0.1465E+00
     21.292  0.3761E-07  0.1465E+00
     21.416  0.4536E-11  0.1465E+00
     21.540  0.3120E-11  0.1465E+00
     21.664  0.2874E-07  0.1465E+00
     21.788  0.1411E-04  0.1465E+00
     21.912  0.4261E-03  0.1465E+00
     22.035  0.1018E-02  0.1466E+00
     22.159  0.2189E-03  0.1467E+00
     22.283  0.3462E-05  0.1467E+00
     22.407  0.3200E-08  0.1467E+00
     22.531  0.1542E-12  0.1467E+00
     22.655  0.3732E-18  0.1467E+00
     22.779  0.0000E+00  0.1467E+00
     22.903  0.0000E+00  0.1467E+00
     23.027  0.0000E+00  0.1467E+00
     23.151  0.0000E+00  0.1467E+00
     23.275  0.0000E+00  0.1467E+00
     23.399  0.0000E+00  0.1467E+00
     23.523  0.0000E+00  0.1467E+00
     23.647  0.0000E+00  0.1467E+00
