    8    8  300    1
  0.5328450E+01  0.3600213E-09  0.3560745E-09  0.3699981E-09  0.5000000E-15
  1.000000000000000E-004
  CAR 
 unknown system                          
     32     32     22
 
  0.1250000E+00  0.1250000E+00  0.1250000E+00  0.3125000E-01
    1      -11.782254   1.000000
    2       -6.170107   1.000000
    3       -3.842152   1.000000
    4       -3.709583   1.000000
    5       -2.759907   1.000000
    6       -1.860196   1.000000
    7       -1.530620   1.000000
    8        0.780930   1.000000
    9        3.210148   1.000000
   10        4.200322   1.000000
   11        4.795574   1.000000
   12        6.062427   1.000000
   13        7.208192   1.000000
   14        8.906391   1.000000
   15        9.758633   1.000000
   16        9.957887   1.000000
   17       10.964007   0.986808
   18       11.175742   0.219505
   19       11.674899   0.000000
   20       13.338728   0.000000
   21       16.874635   0.000000
   22       18.764649   0.000000
 
  0.3750000E+00  0.1250000E+00  0.1250000E+00  0.3125000E-01
    1      -10.576582   1.000000
    2       -7.509457   1.000000
    3       -6.613019   1.000000
    4       -3.631401   1.000000
    5       -3.335791   1.000000
    6       -0.139026   1.000000
    7        0.556898   1.000000
    8        1.164074   1.000000
    9        4.000937   1.000000
   10        4.404900   1.000000
   11        4.991095   1.000000
   12        5.148573   1.000000
   13        6.435637   1.000000
   14        7.514594   1.000000
   15        9.225502   1.000000
   16        9.237924   1.000000
   17       11.952788   0.000000
   18       12.411240   0.000000
   19       13.336668   0.000000
   20       15.243935   0.000000
   21       16.080483   0.000000
   22       19.127527   0.000000
 
 -0.3750000E+00  0.1250000E+00  0.1250000E+00  0.3125000E-01
    1      -10.228123   1.000000
    2       -8.192420   1.000000
    3       -6.507667   1.000000
    4       -4.403804   1.000000
    5       -2.675888   1.000000
    6       -0.767866   1.000000
    7        3.035400   1.000000
    8        3.520251   1.000000
    9        3.776459   1.000000
   10        4.007526   1.000000
   11        4.015705   1.000000
   12        4.751047   1.000000
   13        4.768075   1.000000
   14        5.328904   1.000000
   15        8.645370   1.000000
   16       10.250726   1.000000
   17       10.423746   1.000000
   18       15.192970   0.000000
   19       16.106163   0.000000
   20       16.195113   0.000000
   21       17.779578   0.000000
   22       18.411157   0.000000
 
 -0.1250000E+00  0.1250000E+00  0.1250000E+00  0.3125000E-01
    1      -11.672995   1.000000
    2       -5.598846   1.000000
    3       -5.298033   1.000000
    4       -5.040404   1.000000
    5       -1.812874   1.000000
    6       -0.913765   1.000000
    7        0.619802   1.000000
    8        0.792155   1.000000
    9        2.812739   1.000000
   10        3.359536   1.000000
   11        4.137268   1.000000
   12        5.033680   1.000000
   13        7.677757   1.000000
   14        8.262120   1.000000
   15        8.502113   1.000000
   16        9.563013   1.000000
   17       11.815793   0.000000
   18       12.460067   0.000000
   19       13.071409   0.000000
   20       14.164918   0.000000
   21       16.740421   0.000000
   22       19.081579   0.000000
 
  0.1250000E+00  0.3750000E+00  0.1250000E+00  0.3125000E-01
    1      -10.586213   1.000000
    2       -8.667137   1.000000
    3       -3.783213   1.000000
    4       -2.943641   1.000000
    5       -2.738488   1.000000
    6       -1.981313   1.000000
    7       -1.289141   1.000000
    8        0.912627   1.000000
    9        3.422609   1.000000
   10        3.423643   1.000000
   11        4.166448   1.000000
   12        6.398867   1.000000
   13        7.111824   1.000000
   14        7.465220   1.000000
   15        9.910446   1.000000
   16       10.806064   0.999996
   17       11.879111   0.000000
   18       11.909990   0.000000
   19       14.785945   0.000000
   20       15.204696   0.000000
   21       16.842369   0.000000
   22       18.356624   0.000000
 
  0.3750000E+00  0.3750000E+00  0.1250000E+00  0.3125000E-01
    1       -9.202915   1.000000
    2       -8.458731   1.000000
    3       -7.239683   1.000000
    4       -3.961088   1.000000
    5       -3.214129   1.000000
    6       -0.190666   1.000000
    7        1.281985   1.000000
    8        1.346767   1.000000
    9        2.289670   1.000000
   10        2.478971   1.000000
   11        3.769217   1.000000
   12        4.755210   1.000000
   13        7.242628   1.000000
   14        9.579344   1.000000
   15        9.618151   1.000000
   16       11.999769   0.000000
   17       12.364019   0.000000
   18       14.597020   0.000000
   19       15.264153   0.000000
   20       15.678186   0.000000
   21       16.034414   0.000000
   22       17.782519   0.000000
 
 -0.3750000E+00  0.3750000E+00  0.1250000E+00  0.3125000E-01
    1       -9.637150   1.000000
    2       -7.181047   1.000000
    3       -6.998481   1.000000
    4       -5.938545   1.000000
    5       -3.241581   1.000000
    6        0.550817   1.000000
    7        1.439534   1.000000
    8        1.920502   1.000000
    9        2.887914   1.000000
   10        3.409762   1.000000
   11        3.668733   1.000000
   12        4.703027   1.000000
   13        5.477604   1.000000
   14        6.228953   1.000000
   15       11.297691   0.006236
   16       12.114925   0.000000
   17       12.904222   0.000000
   18       15.902485   0.000000
   19       16.150069   0.000000
   20       16.912030   0.000000
   21       17.597448   0.000000
   22       18.057714   0.000000
 
 -0.1250000E+00  0.3750000E+00  0.1250000E+00  0.3125000E-01
    1      -10.762551   1.000000
    2       -7.746233   1.000000
    3       -5.122938   1.000000
    4       -4.846706   1.000000
    5       -1.840841   1.000000
    6       -0.131099   1.000000
    7        0.648506   1.000000
    8        0.686327   1.000000
    9        2.447773   1.000000
   10        2.485195   1.000000
   11        3.986829   1.000000
   12        5.080278   1.000000
   13        7.528791   1.000000
   14        7.674850   1.000000
   15        9.034818   1.000000
   16       10.785398   0.999999
   17       12.485550   0.000000
   18       14.047216   0.000000
   19       14.923270   0.000000
   20       16.462148   0.000000
   21       16.557783   0.000000
   22       18.012414   0.000000
 
  0.1250000E+00 -0.3750000E+00  0.1250000E+00  0.3125000E-01
    1      -10.771226   1.000000
    2       -8.452210   1.000000
    3       -4.019570   1.000000
    4       -2.744441   1.000000
    5       -2.454357   1.000000
    6       -1.507277   1.000000
    7       -0.145360   1.000000
    8        1.235613   1.000000
    9        1.624670   1.000000
   10        1.952289   1.000000
   11        2.322198   1.000000
   12        5.762229   1.000000
   13        8.867423   1.000000
   14        9.840163   1.000000
   15       10.230573   1.000000
   16       10.407078   1.000000
   17       12.390954   0.000000
   18       12.436845   0.000000
   19       14.070315   0.000000
   20       16.623464   0.000000
   21       17.248231   0.000000
   22       17.863629   0.000000
 
  0.3750000E+00 -0.3750000E+00  0.1250000E+00  0.3125000E-01
    1      -10.185002   1.000000
    2       -7.321046   1.000000
    3       -6.017351   1.000000
    4       -5.305201   1.000000
    5       -1.289037   1.000000
    6       -1.185963   1.000000
    7       -0.244283   1.000000
    8        0.425636   1.000000
    9        2.100587   1.000000
   10        2.562899   1.000000
   11        3.821909   1.000000
   12        4.473349   1.000000
   13        7.696934   1.000000
   14        9.203823   1.000000
   15       11.100992   0.611510
   16       13.913937   0.000000
   17       13.979072   0.000000
   18       13.983984   0.000000
   19       14.768466   0.000000
   20       15.373696   0.000000
   21       18.007161   0.000000
   22       18.023801   0.000000
 
 -0.3750000E+00 -0.3750000E+00  0.1250000E+00  0.3125000E-01
    1       -8.346300   1.000000
    2       -8.141576   1.000000
    3       -7.994482   1.000000
    4       -6.312054   1.000000
    5       -1.331059   1.000000
    6       -0.118940   1.000000
    7        0.730520   1.000000
    8        2.788421   1.000000
    9        3.074429   1.000000
   10        3.324870   1.000000
   11        4.178372   1.000000
   12        4.442404   1.000000
   13        5.606669   1.000000
   14        6.741688   1.000000
   15        9.544632   1.000000
   16       11.368942   0.000227
   17       13.963863   0.000000
   18       14.615732   0.000000
   19       14.905102   0.000000
   20       16.270749   0.000000
   21       16.709621   0.000000
   22       17.834150   0.000000
 
 -0.1250000E+00 -0.3750000E+00  0.1250000E+00  0.3125000E-01
    1      -10.064279   1.000000
    2       -8.799086   1.000000
    3       -5.461223   1.000000
    4       -5.428614   1.000000
    5       -0.431400   1.000000
    6        0.523711   1.000000
    7        0.793783   1.000000
    8        1.295855   1.000000
    9        1.745028   1.000000
   10        3.172388   1.000000
   11        4.758297   1.000000
   12        5.114759   1.000000
   13        6.230886   1.000000
   14        7.070407   1.000000
   15        9.456629   1.000000
   16        9.775915   1.000000
   17       12.299905   0.000000
   18       12.802145   0.000000
   19       12.938033   0.000000
   20       15.106540   0.000000
   21       18.842664   0.000000
   22       19.127042   0.000000
 
  0.1250000E+00 -0.1250000E+00  0.1250000E+00  0.3125000E-01
    1      -11.849802   1.000000
    2       -6.160830   1.000000
    3       -4.304225   1.000000
    4       -3.015687   1.000000
    5       -1.857231   1.000000
    6       -1.643779   1.000000
    7       -1.153720   1.000000
    8        0.684450   1.000000
    9        1.161406   1.000000
   10        2.337278   1.000000
   11        4.329643   1.000000
   12        6.037955   1.000000
   13        9.092867   1.000000
   14        9.523599   1.000000
   15        9.945157   1.000000
   16       10.349433   1.000000
   17       10.902849   0.998984
   18       10.968136   0.984696
   19       12.776781   0.000000
   20       14.991051   0.000000
   21       16.359972   0.000000
   22       19.465720   0.000000
 
  0.3750000E+00 -0.1250000E+00  0.1250000E+00  0.3125000E-01
    1      -10.933945   1.000000
    2       -6.778540   1.000000
    3       -6.289170   1.000000
    4       -4.353953   1.000000
    5       -1.357758   1.000000
    6       -0.731910   1.000000
    7       -0.288597   1.000000
    8        1.193098   1.000000
    9        1.551838   1.000000
   10        2.089162   1.000000
   11        5.152217   1.000000
   12        6.453141   1.000000
   13        8.255844   1.000000
   14        8.339857   1.000000
   15        8.745344   1.000000
   16       10.631773   1.000000
   17       12.127638   0.000000
   18       12.929476   0.000000
   19       13.570171   0.000000
   20       16.538869   0.000000
   21       17.263337   0.000000
   22       17.827897   0.000000
 
 -0.3750000E+00 -0.1250000E+00  0.1250000E+00  0.3125000E-01
    1       -9.701392   1.000000
    2       -8.750773   1.000000
    3       -6.459724   1.000000
    4       -5.656333   1.000000
    5       -1.309416   1.000000
    6        0.118759   1.000000
    7        1.656039   1.000000
    8        2.968290   1.000000
    9        3.749570   1.000000
   10        4.433461   1.000000
   11        4.769384   1.000000
   12        4.907984   1.000000
   13        6.410491   1.000000
   14        6.546284   1.000000
   15        7.132791   1.000000
   16        7.365977   1.000000
   17       11.381832   0.000113
   18       13.632724   0.000000
   19       14.867098   0.000000
   20       15.837366   0.000000
   21       17.753689   0.000000
   22       18.207001   0.000000
 
 -0.1250000E+00 -0.1250000E+00  0.1250000E+00  0.3125000E-01
    1      -11.432910   1.000000
    2       -6.193494   1.000000
    3       -5.882316   1.000000
    4       -5.505134   1.000000
    5       -1.221697   1.000000
    6        0.562883   1.000000
    7        0.919884   1.000000
    8        1.502103   1.000000
    9        2.918388   1.000000
   10        3.281091   1.000000
   11        3.663153   1.000000
   12        6.301260   1.000000
   13        7.180871   1.000000
   14        8.370273   1.000000
   15        8.734146   1.000000
   16        8.841647   1.000000
   17        9.552762   1.000000
   18       10.632069   1.000000
   19       11.577199   0.000000
   20       14.483559   0.000000
   21       18.994484   0.000000
   22       20.619155   0.000000
 
  0.1250000E+00  0.1250000E+00  0.3750000E+00  0.3125000E-01
    1      -10.920278   1.000000
    2       -7.199350   1.000000
    3       -6.216994   1.000000
    4       -4.109508   1.000000
    5       -2.482387   1.000000
    6       -0.801114   1.000000
    7        0.894859   1.000000
    8        2.682549   1.000000
    9        3.271738   1.000000
   10        3.277869   1.000000
   11        3.525668   1.000000
   12        4.422489   1.000000
   13        6.488948   1.000000
   14        8.279099   1.000000
   15        8.986018   1.000000
   16       10.991788   0.966197
   17       11.537872   0.000000
   18       13.009801   0.000000
   19       13.579664   0.000000
   20       14.567415   0.000000
   21       16.132459   0.000000
   22       20.714441   0.000000
 
  0.3750000E+00  0.1250000E+00  0.3750000E+00  0.3125000E-01
    1      -10.265681   1.000000
    2       -7.923993   1.000000
    3       -5.119531   1.000000
    4       -4.565941   1.000000
    5       -3.109997   1.000000
    6       -1.934276   1.000000
    7       -0.357659   1.000000
    8        2.119010   1.000000
    9        2.386757   1.000000
   10        3.283805   1.000000
   11        4.599822   1.000000
   12        4.668521   1.000000
   13        8.929820   1.000000
   14        9.743413   1.000000
   15       10.088676   1.000000
   16       11.046814   0.853013
   17       11.634530   0.000000
   18       13.568197   0.000000
   19       14.781498   0.000000
   20       14.867175   0.000000
   21       16.073618   0.000000
   22       19.782924   0.000000
 
 -0.3750000E+00  0.1250000E+00  0.3750000E+00  0.3125000E-01
    1       -8.852403   1.000000
    2       -8.491513   1.000000
    3       -8.319673   1.000000
    4       -2.656509   1.000000
    5       -2.489556   1.000000
    6       -0.581561   1.000000
    7        0.829358   1.000000
    8        1.018034   1.000000
    9        1.072127   1.000000
   10        2.495007   1.000000
   11        5.110653   1.000000
   12        6.589102   1.000000
   13        7.427291   1.000000
   14        8.469994   1.000000
   15        8.732371   1.000000
   16       10.343579   1.000000
   17       11.954071   0.000000
   18       14.787923   0.000000
   19       17.084573   0.000000
   20       17.354138   0.000000
   21       17.393777   0.000000
   22       17.666318   0.000000
 
 -0.1250000E+00  0.1250000E+00  0.3750000E+00  0.3125000E-01
    1      -10.280047   1.000000
    2       -8.649840   1.000000
    3       -6.158676   1.000000
    4       -4.297704   1.000000
    5       -1.023271   1.000000
    6       -0.801717   1.000000
    7        1.038605   1.000000
    8        2.968153   1.000000
    9        3.575039   1.000000
   10        3.763105   1.000000
   11        4.274515   1.000000
   12        4.446389   1.000000
   13        5.248423   1.000000
   14        5.758677   1.000000
   15        9.656520   1.000000
   16       10.135965   1.000000
   17       10.950142   0.992167
   18       13.869754   0.000000
   19       14.073207   0.000000
   20       14.906198   0.000000
   21       18.950395   0.000000
   22       19.569739   0.000000
 
  0.1250000E+00  0.3750000E+00  0.3750000E+00  0.3125000E-01
    1       -9.936413   1.000000
    2       -7.610178   1.000000
    3       -5.807572   1.000000
    4       -5.722140   1.000000
    5       -3.468850   1.000000
    6       -0.882309   1.000000
    7       -0.187587   1.000000
    8        2.370178   1.000000
    9        2.735481   1.000000
   10        4.598143   1.000000
   11        4.999827   1.000000
   12        5.657523   1.000000
   13        7.673649   1.000000
   14        8.169421   1.000000
   15        8.781199   1.000000
   16       11.010032   0.941748
   17       11.761590   0.000000
   18       12.840024   0.000000
   19       14.965122   0.000000
   20       15.549242   0.000000
   21       16.690284   0.000000
   22       19.250316   0.000000
 
  0.3750000E+00  0.3750000E+00  0.3750000E+00  0.3125000E-01
    1       -9.164699   1.000000
    2       -8.263326   1.000000
    3       -5.040241   1.000000
    4       -4.962527   1.000000
    5       -3.707886   1.000000
    6       -3.130623   1.000000
    7       -0.379847   1.000000
    8       -0.307702   1.000000
    9        2.030351   1.000000
   10        4.666525   1.000000
   11        5.051523   1.000000
   12        7.878418   1.000000
   13        9.545595   1.000000
   14        9.982317   1.000000
   15       10.772729   1.000000
   16       11.126752   0.467699
   17       11.404770   0.000030
   18       14.030429   0.000000
   19       15.041611   0.000000
   20       15.717250   0.000000
   21       16.192729   0.000000
   22       18.606589   0.000000
 
 -0.3750000E+00  0.3750000E+00  0.3750000E+00  0.3125000E-01
    1       -8.259706   1.000000
    2       -7.903382   1.000000
    3       -7.818070   1.000000
    4       -4.743471   1.000000
    5       -3.789995   1.000000
    6       -1.451362   1.000000
    7       -0.663371   1.000000
    8        0.937457   1.000000
    9        1.773831   1.000000
   10        4.568823   1.000000
   11        5.177568   1.000000
   12        6.749129   1.000000
   13        8.111181   1.000000
   14        8.770793   1.000000
   15       10.789442   0.999999
   16       11.811361   0.000000
   17       11.869656   0.000000
   18       15.574438   0.000000
   19       16.614952   0.000000
   20       16.928405   0.000000
   21       17.275178   0.000000
   22       18.257085   0.000000
 
 -0.1250000E+00  0.3750000E+00  0.3750000E+00  0.3125000E-01
    1       -9.561001   1.000000
    2       -7.501437   1.000000
    3       -6.862149   1.000000
    4       -6.078592   1.000000
    5       -2.883465   1.000000
    6       -1.002189   1.000000
    7        0.551866   1.000000
    8        3.336020   1.000000
    9        3.925766   1.000000
   10        4.850315   1.000000
   11        5.152596   1.000000
   12        5.358986   1.000000
   13        5.417992   1.000000
   14        6.838115   1.000000
   15        7.337452   1.000000
   16       10.699583   1.000000
   17       12.621049   0.000000
   18       14.861261   0.000000
   19       16.126576   0.000000
   20       16.896625   0.000000
   21       17.842792   0.000000
   22       18.655975   0.000000
 
  0.1250000E+00 -0.3750000E+00  0.3750000E+00  0.3125000E-01
    1       -9.621350   1.000000
    2       -8.125588   1.000000
    3       -7.213223   1.000000
    4       -3.893568   1.000000
    5       -2.105900   1.000000
    6       -0.643582   1.000000
    7       -0.225301   1.000000
    8        0.320496   1.000000
    9        1.753902   1.000000
   10        3.690057   1.000000
   11        4.664653   1.000000
   12        7.697223   1.000000
   13        8.083923   1.000000
   14        8.523565   1.000000
   15        9.107493   1.000000
   16       10.604667   1.000000
   17       10.711059   1.000000
   18       14.844494   0.000000
   19       15.250095   0.000000
   20       16.027002   0.000000
   21       17.949406   0.000000
   22       18.740299   0.000000
 
  0.3750000E+00 -0.3750000E+00  0.3750000E+00  0.3125000E-01
    1       -9.605678   1.000000
    2       -7.910254   1.000000
    3       -5.100680   1.000000
    4       -3.758451   1.000000
    5       -3.742631   1.000000
    6       -2.908606   1.000000
    7       -1.726303   1.000000
    8       -0.342903   1.000000
    9        2.250974   1.000000
   10        3.807024   1.000000
   11        3.912301   1.000000
   12        7.976550   1.000000
   13       10.104978   1.000000
   14       10.661057   1.000000
   15       10.856297   0.999909
   16       11.216523   0.088411
   17       12.864090   0.000000
   18       14.939379   0.000000
   19       15.940399   0.000000
   20       16.456102   0.000000
   21       17.513048   0.000000
   22       18.120209   0.000000
 
 -0.3750000E+00 -0.3750000E+00  0.3750000E+00  0.3125000E-01
    1       -8.437922   1.000000
    2       -8.130188   1.000000
    3       -6.461950   1.000000
    4       -5.997041   1.000000
    5       -4.105478   1.000000
    6       -1.556009   1.000000
    7       -0.650744   1.000000
    8        1.998758   1.000000
    9        3.321062   1.000000
   10        3.390561   1.000000
   11        4.293118   1.000000
   12        8.178519   1.000000
   13        8.259185   1.000000
   14        9.031402   1.000000
   15        9.794917   1.000000
   16       10.180486   1.000000
   17       11.812010   0.000000
   18       14.966633   0.000000
   19       15.711839   0.000000
   20       16.061744   0.000000
   21       16.887810   0.000000
   22       19.689780   0.000000
 
 -0.1250000E+00 -0.3750000E+00  0.3750000E+00  0.3125000E-01
    1       -8.393710   1.000000
    2       -8.172145   1.000000
    3       -7.834447   1.000000
    4       -6.408892   1.000000
    5       -2.967444   1.000000
    6        0.323697   1.000000
    7        2.799734   1.000000
    8        2.842414   1.000000
    9        3.280728   1.000000
   10        3.756158   1.000000
   11        4.663450   1.000000
   12        5.099204   1.000000
   13        5.779138   1.000000
   14        6.327896   1.000000
   15        8.995442   1.000000
   16        9.250050   1.000000
   17       13.617273   0.000000
   18       13.686058   0.000000
   19       14.252549   0.000000
   20       15.369559   0.000000
   21       17.493332   0.000000
   22       20.023463   0.000000
 
  0.1250000E+00 -0.1250000E+00  0.3750000E+00  0.3125000E-01
    1      -10.817170   1.000000
    2       -7.726647   1.000000
    3       -6.485779   1.000000
    4       -3.282246   1.000000
    5       -0.213371   1.000000
    6        0.085049   1.000000
    7        0.399442   1.000000
    8        0.773078   1.000000
    9        0.851911   1.000000
   10        1.870644   1.000000
   11        3.598913   1.000000
   12        5.448761   1.000000
   13        7.814274   1.000000
   14        9.259412   1.000000
   15        9.986958   1.000000
   16       11.083235   0.703458
   17       11.185940   0.179287
   18       11.986459   0.000000
   19       12.293057   0.000000
   20       16.222363   0.000000
   21       18.567179   0.000000
   22       20.879173   0.000000
 
  0.3750000E+00 -0.1250000E+00  0.3750000E+00  0.3125000E-01
    1      -10.443393   1.000000
    2       -7.777651   1.000000
    3       -5.305714   1.000000
    4       -4.286227   1.000000
    5       -2.012974   1.000000
    6       -0.924264   1.000000
    7       -0.381772   1.000000
    8        0.333391   1.000000
    9        0.454183   1.000000
   10        2.781675   1.000000
   11        3.437261   1.000000
   12        7.522050   1.000000
   13        8.474620   1.000000
   14       10.459067   1.000000
   15       10.594196   1.000000
   16       10.732248   1.000000
   17       12.339473   0.000000
   18       13.656096   0.000000
   19       14.910516   0.000000
   20       15.878061   0.000000
   21       17.131033   0.000000
   22       18.863175   0.000000
 
 -0.3750000E+00 -0.1250000E+00  0.3750000E+00  0.3125000E-01
    1       -8.837784   1.000000
    2       -8.833195   1.000000
    3       -7.650874   1.000000
    4       -4.304955   1.000000
    5       -1.551802   1.000000
    6       -1.193276   1.000000
    7        0.923624   1.000000
    8        2.016578   1.000000
    9        2.070293   1.000000
   10        2.852544   1.000000
   11        4.621967   1.000000
   12        5.335937   1.000000
   13        7.740590   1.000000
   14        8.587392   1.000000
   15        8.847501   1.000000
   16       10.196561   1.000000
   17       12.628592   0.000000
   18       12.683946   0.000000
   19       15.774515   0.000000
   20       16.089174   0.000000
   21       17.013186   0.000000
   22       19.844083   0.000000
 
 -0.1250000E+00 -0.1250000E+00  0.3750000E+00  0.3125000E-01
    1       -9.879311   1.000000
    2       -8.899136   1.000000
    3       -6.254850   1.000000
    4       -5.557810   1.000000
    5       -0.366447   1.000000
    6        1.083840   1.000000
    7        1.896245   1.000000
    8        2.201491   1.000000
    9        2.890700   1.000000
   10        3.533717   1.000000
   11        4.377022   1.000000
   12        4.791022   1.000000
   13        5.305841   1.000000
   14        6.421060   1.000000
   15        6.951030   1.000000
   16       10.776302   0.999999
   17       11.423910   0.000009
   18       12.944704   0.000000
   19       13.566544   0.000000
   20       13.895785   0.000000
   21       18.925539   0.000000
   22       21.956588   0.000000
