 vasp.6.2.1 16May21 (build Oct 21 2023 21:03:18) complex                        
  
 executed on             LinuxIFC date 2024.05.29  18:29:00
 running on    2 total cores
 distrk:  each k-point on    2 cores,    1 groups
 distr:  one band on NCORE=   1 cores,    2 groups


--------------------------------------------------------------------------------------------------------


 INCAR:
   PREC = accurate
   ENCUT = 600
   EDIFF = 1e-06
   EDIFFG = 1e-05
   IBRION = 2
   ISIF = 2
   ISYM = 2
   ISMEAR = 0
   SIGMA = 0.1
   LREAL = False
   NPAR = 11
   NSW = 300
   ISTART = 0
   LCHARG = False
   LPLANE = False
   LWAVE = False

 POTCAR:    PAW_PBE C 08Apr2002                   
 -----------------------------------------------------------------------------
|                                                                             |
|           W    W    AA    RRRRR   N    N  II  N    N   GGGG   !!!           |
|           W    W   A  A   R    R  NN   N  II  NN   N  G    G  !!!           |
|           W    W  A    A  R    R  N N  N  II  N N  N  G       !!!           |
|           W WW W  AAAAAA  RRRRR   N  N N  II  N  N N  G  GGG   !            |
|           WW  WW  A    A  R   R   N   NN  II  N   NN  G    G                |
|           W    W  A    A  R    R  N    N  II  N    N   GGGG   !!!           |
|                                                                             |
|     The value NPAR = 11 specified in the INCAR file was overwritten,        |
|     because it was not compatible with the 2 processes available:           |
|     NPAR = 2                                                                |
|     was used instead, please check that this makes sense for your           |
|     machine.                                                                |
|                                                                             |
 -----------------------------------------------------------------------------

 POTCAR:    PAW_PBE C 08Apr2002                   
   SHA256 =  253f7b50bb8d59471dbedb8285d89021f4a42ed1a2c5d38a03a736e69125dd95 C/POTCAR              
   COPYR  = (c) Copyright 08Apr2002 Georg Kresse                                                    
   COPYR  = This file is part of the software VASP. Any use, copying, and all other rights are regul
   COPYR  = If you do not have a valid VASP license, you may not use, copy or distribute this file. 
   VRHFIN =C: s2p2                                                                                  
   LEXCH  = PE                                                                                      
   EATOM  =   147.1560 eV,   10.8157 Ry                                                             
                                                                                                    
   TITEL  = PAW_PBE C 08Apr2002                                                                     
   LULTRA =        F    use ultrasoft PP ?                                                          
   IUNSCR =        1    unscreen: 0-lin 1-nonlin 2-no                                               
   RPACOR =    1.200    partial core radius                                                         
   POMASS =   12.011; ZVAL   =    4.000    mass and valenz                                          
   RCORE  =    1.500    outmost cutoff radius                                                       
   RWIGS  =    1.630; RWIGS  =    0.863    wigner-seitz radius (au A)                               
   ENMAX  =  400.000; ENMIN  =  300.000 eV                                                          
   ICORE  =        2    local potential                                                             
   LCOR   =        T    correct aug charges                                                         
   LPAW   =        T    paw PP                                                                      
   EAUG   =  644.873                                                                                
   DEXC   =    0.000                                                                                
   RMAX   =    1.529    core radius for proj-oper                                                   
   RAUG   =    1.300    factor for augmentation sphere                                              
   RDEP   =    1.501    radius for radial grids                                                     
   RDEPT  =    1.300    core radius for aug-charge                                                  
                                                                                                    
   Atomic configuration                                                                             
    4 entries                                                                                       
     n  l   j            E        occ.                                                              
     1  0  0.50      -273.3789   2.0000                                                             
     2  0  0.50       -13.7508   2.0000                                                             
     2  1  0.50        -5.2854   2.0000                                                             
     3  2  1.50        -5.4423   0.0000                                                             
   Description                                                                                      
     l       E           TYP  RCUT    TYP  RCUT                                                     
     0    -13.7508458     23  1.200                                                                 
     0     -8.2022199     23  1.200                                                                 
     1     -5.2854383     23  1.500                                                                 
     1     34.0145650     23  1.500                                                                 
     2     -5.4423304      7  1.500                                                                 
  local pseudopotential read in
  partial core-charges read in
  partial kinetic energy density read in
  atomic valenz-charges read in
  non local Contribution for L=           0  read in
    real space projection operators read in
  non local Contribution for L=           0  read in
    real space projection operators read in
  non local Contribution for L=           1  read in
    real space projection operators read in
  non local Contribution for L=           1  read in
    real space projection operators read in
    PAW grid and wavefunctions read in
 
   number of l-projection  operators is LMAX  =           4
   number of lm-projection operators is LMMAX =           8
 
  PAW_PBE C 08Apr2002                   :
 energy of atom  1       EATOM= -147.1560
 kinetic energy error for atom=    0.0057 (will be added to EATOM!!)
 
 
 POSCAR:  C
  positions in direct lattice
  No initial velocities read in
 exchange correlation table for  LEXCH =        8
   RHO(1)=    0.500       N(1)  =     2000
   RHO(2)=  100.500       N(2)  =     4000
 


--------------------------------------------------------------------------------------------------------


 ion  position               nearest neighbor table
   1  0.125  0.125  0.625-   8 1.19   4 1.51   2 1.69   6 1.82   5 2.05   5 2.05
   2  0.375  0.375  0.875-   7 1.19   3 1.51   1 1.69   5 1.82   6 2.05   6 2.05
   3  0.125  0.625  0.125-   6 1.19   2 1.51   4 1.69   8 1.82   7 2.05   7 2.05
   4  0.375  0.875  0.375-   5 1.19   1 1.51   3 1.69   7 1.82   8 2.05   8 2.05
   5  0.625  0.125  0.125-   4 1.19   8 1.51   6 1.69   2 1.82   1 2.05   1 2.05
   6  0.875  0.375  0.375-   3 1.19   7 1.51   5 1.69   1 1.82   2 2.05   2 2.05
   7  0.625  0.625  0.625-   2 1.19   6 1.51   8 1.69   4 1.82   3 2.05   3 2.05
   8  0.875  0.875  0.875-   1 1.19   5 1.51   7 1.69   3 1.82   4 2.05   4 2.05
 
  LATTYP: Found a triclinic cell.
 ALAT       =     4.5196036615
 B/A-ratio  =     1.5068607713
 C/A-ratio  =     1.8601048682
 COS(alpha) =     0.0119104716
 COS(beta)  =     0.5680757143
 COS(gamma) =     0.8130272441
  
  Lattice vectors:
  
 A1 = (  -3.5671193205,   2.6600832443,   0.7914759279)
 A2 = (  -2.0534915317,   5.7647498365,   2.9887394227)
 A3 = (  -7.1155100808,  -0.0956358614,  -4.4762658518)


Analysis of symmetry for initial positions (statically):
=====================================================================
 Subroutine PRICEL returns following result:
 
  LATTYP: Found a triclinic cell.
 ALAT       =     2.0468262382
 B/A-ratio  =     1.3568918520
 C/A-ratio  =     1.1040516232
 COS(alpha) =     0.0112580284
 COS(beta)  =     0.2485428428
 COS(gamma) =     0.5027183907
  
  Lattice vectors:
  
 A1 = (   0.7568138944,   1.5523332961,   1.0986317474)
 A2 = (   1.2624244775,   2.1235724566,  -1.2689527539)
 A3 = (  -1.7835596602,   1.3300416221,   0.3957379639)
 
   4 primitive cells build up your supercell.
 

 Routine SETGRP: Setting up the symmetry group for a 
 triclinic supercell.


 Subroutine GETGRP returns: Found  2 space group operations
 (whereof  1 operations were pure point group operations)
 out of a pool of  2 trial point group operations.


The static configuration has the point symmetry C_1 .
 The point group associated with its full space group is S_2 .


Analysis of symmetry for dynamics (positions and initial velocities):
=====================================================================
 Subroutine PRICEL returns following result:
 
  LATTYP: Found a triclinic cell.
 ALAT       =     2.0468262382
 B/A-ratio  =     1.3568918520
 C/A-ratio  =     1.1040516232
 COS(alpha) =     0.0112580284
 COS(beta)  =     0.2485428428
 COS(gamma) =     0.5027183907
  
  Lattice vectors:
  
 A1 = (   0.7568138944,   1.5523332961,   1.0986317474)
 A2 = (   1.2624244775,   2.1235724566,  -1.2689527539)
 A3 = (  -1.7835596602,   1.3300416221,   0.3957379639)
 
   4 primitive cells build up your supercell.
 

 Routine SETGRP: Setting up the symmetry group for a 
 triclinic supercell.


 Subroutine GETGRP returns: Found  2 space group operations
 (whereof  1 operations were pure point group operations)
 out of a pool of  2 trial point group operations.


The dynamic configuration has the point symmetry C_1 .
 The point group associated with its full space group is S_2 .


Analysis of constrained symmetry for selective dynamics:
=====================================================================
 Subroutine PRICEL returns following result:
 
  LATTYP: Found a triclinic cell.
 ALAT       =     2.0468262382
 B/A-ratio  =     1.3568918520
 C/A-ratio  =     1.1040516232
 COS(alpha) =     0.0112580284
 COS(beta)  =     0.2485428428
 COS(gamma) =     0.5027183907
  
  Lattice vectors:
  
 A1 = (   0.7568138944,   1.5523332961,   1.0986317474)
 A2 = (   1.2624244775,   2.1235724566,  -1.2689527539)
 A3 = (  -1.7835596602,   1.3300416221,   0.3957379639)
 
   4 primitive cells build up your supercell.
 

 Routine SETGRP: Setting up the symmetry group for a 
 triclinic supercell.


 Subroutine GETGRP returns: Found  2 space group operations
 (whereof  1 operations were pure point group operations)
 out of a pool of  2 trial point group operations.


The constrained configuration has the point symmetry C_1 .
 The point group associated with its full space group is S_2 .


 Subroutine INISYM returns: Found  2 space group operations
 (whereof  1 operations are pure point group operations),
 and found     4 'primitive' translations


----------------------------------------------------------------------------------------

                                     Primitive cell                                     

  volume of cell :      10.6569

  direct lattice vectors                    reciprocal lattice vectors
     0.756813894  1.552333296  1.098631747     0.237230193  0.165495013  0.512963034
     1.262424477  2.123572457 -1.268952754     0.079470466  0.211973037 -0.354256244
    -1.783559660  1.330041622  0.395737964    -0.403763019  0.220261135 -0.033082270

  length of vectors
     2.046826238  2.777321845  2.259801831     0.588895439  0.420411238  0.461122521

  position of ions in fractional coordinates (direct lattice)
     0.250000000  0.375000000  0.125000000
     0.750000000  0.125000000  0.375000000

  ion indices of the primitive-cell ions
   primitive index   ion index
                 1           1
                 2           2

----------------------------------------------------------------------------------------

 
 
 KPOINTS: KPOINTS created by Atomic Simulation Env

Automatic generation of k-mesh.
 Grid dimensions read from file:
 generate k-points for:    4    4    4

 Generating k-lattice:

  Cartesian coordinates                     Fractional coordinates (reciprocal lattice)
     0.010882795 -0.074716148 -0.015703065     0.250000000 -0.000000000 -0.000000000
     0.060404186 -0.001036012 -0.040146747    -0.000000000  0.250000000 -0.000000000
     0.029653774  0.020686877  0.064120379     0.000000000 -0.000000000  0.250000000

  Length of vectors
     0.077120194  0.072536199  0.073611930

  Shift w.r.t. Gamma in fractional coordinates (k-lattice)
     0.500000000  0.500000000  0.500000000

 
 Subroutine IBZKPT returns following result:
 ===========================================
 
 Found     32 irreducible k-points:
 
 Following reciprocal coordinates:
            Coordinates               Weight
  0.125000  0.125000  0.125000      2.000000
  0.375000  0.125000  0.125000      2.000000
 -0.375000  0.125000  0.125000      2.000000
 -0.125000  0.125000  0.125000      2.000000
  0.125000  0.375000  0.125000      2.000000
  0.375000  0.375000  0.125000      2.000000
 -0.375000  0.375000  0.125000      2.000000
 -0.125000  0.375000  0.125000      2.000000
  0.125000 -0.375000  0.125000      2.000000
  0.375000 -0.375000  0.125000      2.000000
 -0.375000 -0.375000  0.125000      2.000000
 -0.125000 -0.375000  0.125000      2.000000
  0.125000 -0.125000  0.125000      2.000000
  0.375000 -0.125000  0.125000      2.000000
 -0.375000 -0.125000  0.125000      2.000000
 -0.125000 -0.125000  0.125000      2.000000
  0.125000  0.125000  0.375000      2.000000
  0.375000  0.125000  0.375000      2.000000
 -0.375000  0.125000  0.375000      2.000000
 -0.125000  0.125000  0.375000      2.000000
  0.125000  0.375000  0.375000      2.000000
  0.375000  0.375000  0.375000      2.000000
 -0.375000  0.375000  0.375000      2.000000
 -0.125000  0.375000  0.375000      2.000000
  0.125000 -0.375000  0.375000      2.000000
  0.375000 -0.375000  0.375000      2.000000
 -0.375000 -0.375000  0.375000      2.000000
 -0.125000 -0.375000  0.375000      2.000000
  0.125000 -0.125000  0.375000      2.000000
  0.375000 -0.125000  0.375000      2.000000
 -0.375000 -0.125000  0.375000      2.000000
 -0.125000 -0.125000  0.375000      2.000000
 
 Following cartesian coordinates:
            Coordinates               Weight
  0.050470 -0.027533  0.004135      2.000000
  0.061353 -0.102249 -0.011568      2.000000
  0.028705  0.121900  0.035541      2.000000
  0.039588  0.047184  0.019838      2.000000
  0.110875 -0.028569 -0.036011      2.000000
  0.121757 -0.103285 -0.051715      2.000000
  0.089109  0.120864 -0.004605      2.000000
  0.099992  0.046147 -0.020308      2.000000
 -0.070338 -0.025461  0.084429      2.000000
 -0.059455 -0.100177  0.068726      2.000000
 -0.092104  0.123972  0.115835      2.000000
 -0.081221  0.049256  0.100132      2.000000
 -0.009934 -0.026497  0.044282      2.000000
  0.000949 -0.101213  0.028579      2.000000
 -0.031699  0.122936  0.075688      2.000000
 -0.020817  0.048220  0.059985      2.000000
  0.080124 -0.006846  0.068256      2.000000
  0.091007 -0.081562  0.052553      2.000000
  0.058359  0.142587  0.099662      2.000000
  0.069241  0.067870  0.083959      2.000000
  0.140528 -0.007882  0.028109      2.000000
  0.151411 -0.082598  0.012406      2.000000
  0.118763  0.141551  0.059515      2.000000
  0.129646  0.066834  0.043812      2.000000
 -0.040684 -0.004774  0.148549      2.000000
 -0.029801 -0.079490  0.132846      2.000000
 -0.062450  0.144659  0.179955      2.000000
 -0.051567  0.069942  0.164252      2.000000
  0.019720 -0.005810  0.108402      2.000000
  0.030603 -0.080526  0.092699      2.000000
 -0.002046  0.143623  0.139809      2.000000
  0.008837  0.068906  0.124105      2.000000
 


--------------------------------------------------------------------------------------------------------




 Dimension of arrays:
   k-points           NKPTS =     32   k-points in BZ     NKDIM =     32   number of bands    NBANDS=     22
   number of dos      NEDOS =    301   number of ions     NIONS =      8
   non local maximal  LDIM  =      4   non local SUM 2l+1 LMDIM =      8
   total plane-waves  NPLWV =  25200
   max r-space proj   IRMAX =      1   max aug-charges    IRDMAX=   7175
   dimension x,y,z NGX =    30 NGY =   28 NGZ =   30
   dimension x,y,z NGXF=    60 NGYF=   56 NGZF=   60
   support grid    NGXF=    60 NGYF=   56 NGZF=   60
   ions per type =               8
   NGX,Y,Z   is equivalent  to a cutoff of  13.85, 13.07, 13.48 a.u.
   NGXF,Y,Z  is equivalent  to a cutoff of  27.71, 26.15, 26.96 a.u.

 SYSTEM =  unknown system                          
 POSCAR =   C                                      

 Startparameter for this run:
   NWRITE =      2    write-flag & timer
   PREC   = accura    normal or accurate (medium, high low for compatibility)
   ISTART =      0    job   : 0-new  1-cont  2-samecut
   ICHARG =      2    charge: 1-file 2-atom 10-const
   ISPIN  =      1    spin polarized calculation?
   LNONCOLLINEAR =      F non collinear calculations
   LSORBIT =      F    spin-orbit coupling
   INIWAV =      1    electr: 0-lowe 1-rand  2-diag
   LASPH  =      F    aspherical Exc in radial PAW
 Electronic Relaxation 1
   ENCUT  =  600.0 eV  44.10 Ry    6.64 a.u.   7.19  7.11  7.39*2*pi/ulx,y,z
   ENINI  =  600.0     initial cutoff
   ENAUG  =  644.9 eV  augmentation charge cutoff
   NELM   =     60;   NELMIN=  2; NELMDL= -5     # of ELM steps 
   EDIFF  = 0.1E-05   stopping-criterion for ELM
   LREAL  =      F    real-space projection
   NLSPLINE    = F    spline interpolate recip. space projectors
   LCOMPAT=      F    compatible to vasp.4.4
   GGA_COMPAT  = T    GGA compatible to vasp.4.4-vasp.4.6
   LMAXPAW     = -100 max onsite density
   LMAXMIX     =    2 max onsite mixed and CHGCAR
   VOSKOWN=      0    Vosko Wilk Nusair interpolation
   ROPT   =    0.00000
 Ionic relaxation
   EDIFFG = 0.1E-04   stopping-criterion for IOM
   NSW    =    300    number of steps for IOM
   NBLOCK =      1;   KBLOCK =    300    inner block; outer block 
   IBRION =      2    ionic relax: 0-MD 1-quasi-New 2-CG
   NFREE  =      1    steps in history (QN), initial steepest desc. (CG)
   ISIF   =      2    stress and relaxation
   IWAVPR =     11    prediction:  0-non 1-charg 2-wave 3-comb
   ISYM   =      2    0-nonsym 1-usesym 2-fastsym
   LCORR  =      T    Harris-Foulkes like correction to forces

   POTIM  = 0.5000    time-step for ionic-motion
   TEIN   =    0.0    initial temperature
   TEBEG  =    0.0;   TEEND  =   0.0 temperature during run
   SMASS  =  -3.00    Nose mass-parameter (am)
   estimated Nose-frequenzy (Omega)   =  0.10E-29 period in steps = 0.13E+47 mass=  -0.296E-27a.u.
   SCALEE = 1.0000    scale energy and forces
   NPACO  =    256;   APACO  = 16.0  distance and # of slots for P.C.
   PSTRESS=    0.0 pullay stress

  Mass of Ions in am
   POMASS =  12.01
  Ionic Valenz
   ZVAL   =   4.00
  Atomic Wigner-Seitz radii
   RWIGS  =  -1.00
  virtual crystal weights 
   VCA    =   1.00
   NELECT =      32.0000    total number of electrons
   NUPDOWN=      -1.0000    fix difference up-down

 DOS related values:
   EMIN   =  10.00;   EMAX   =-10.00  energy-range for DOS
   EFERMI =   0.00
   ISMEAR =     0;   SIGMA  =   0.10  broadening in eV -4-tet -1-fermi 0-gaus

 Electronic relaxation 2 (details)
   IALGO  =     38    algorithm
   LDIAG  =      T    sub-space diagonalisation (order eigenvalues)
   LSUBROT=      F    optimize rotation matrix (better conditioning)
   TURBO    =      0    0=normal 1=particle mesh
   IRESTART =      0    0=no restart 2=restart with 2 vectors
   NREBOOT  =      0    no. of reboots
   NMIN     =      0    reboot dimension
   EREF     =   0.00    reference energy to select bands
   IMIX   =      4    mixing-type and parameters
     AMIX     =   0.40;   BMIX     =  1.00
     AMIX_MAG =   1.60;   BMIX_MAG =  1.00
     AMIN     =   0.10
     WC   =   100.;   INIMIX=   1;  MIXPRE=   1;  MAXMIX= -45

 Intra band minimization:
   WEIMIN = 0.0010     energy-eigenvalue tresh-hold
   EBREAK =  0.11E-07  absolut break condition
   DEPER  =   0.30     relativ break condition  

   TIME   =   0.40     timestep for ELM

  volume/ion in A,a.u.               =       5.33        35.96
  Fermi-wavevector in a.u.,A,eV,Ry     =   1.487857  2.811642 30.119470  2.213719
  Thomas-Fermi vector in A             =   2.600965
 
 Write flags
   LWAVE        =      F    write WAVECAR
   LDOWNSAMPLE  =      F    k-point downsampling of WAVECAR
   LCHARG       =      F    write CHGCAR
   LVTOT        =      F    write LOCPOT, total local potential
   LVHAR        =      F    write LOCPOT, Hartree potential only
   LELF         =      F    write electronic localiz. function (ELF)
   LORBIT       =      0    0 simple, 1 ext, 2 COOP (PROOUT), +10 PAW based schemes


 Dipole corrections
   LMONO  =      F    monopole corrections only (constant potential shift)
   LDIPOL =      F    correct potential (dipole corrections)
   IDIPOL =      0    1-x, 2-y, 3-z, 4-all directions 
   EPSILON=  1.0000000 bulk dielectric constant

 Exchange correlation treatment:
   GGA     =    --    GGA type
   LEXCH   =     8    internal setting for exchange type
   VOSKOWN=      0    Vosko Wilk Nusair interpolation
   LHFCALC =     F    Hartree Fock is set to
   LHFONE  =     F    Hartree Fock one center treatment
   AEXX    =    0.0000 exact exchange contribution

 Linear response parameters
   LEPSILON=     F    determine dielectric tensor
   LRPA    =     F    only Hartree local field effects (RPA)
   LNABLA  =     F    use nabla operator in PAW spheres
   LVEL    =     F    velocity operator in full k-point grid
   LINTERFAST=   F  fast interpolation
   KINTER  =     0    interpolate to denser k-point grid
   CSHIFT  =0.1000    complex shift for real part using Kramers Kronig
   OMEGAMAX=  -1.0    maximum frequency
   DEG_THRESHOLD= 0.2000000E-02 threshold for treating states as degnerate
   RTIME   =   -0.100 relaxation time in fs
  (WPLASMAI=    0.000 imaginary part of plasma frequency in eV, 0.658/RTIME)
   DFIELD  = 0.0000000 0.0000000 0.0000000 field for delta impulse in time
 
 Orbital magnetization related:
   ORBITALMAG=     F  switch on orbital magnetization
   LCHIMAG   =     F  perturbation theory with respect to B field
   DQ        =  0.001000  dq finite difference perturbation B field
   LLRAUG    =     F  two centre corrections for induced B field



--------------------------------------------------------------------------------------------------------


 conjugate gradient relaxation of ions
   using selective dynamics as specified on POSCAR
 charge density and potential will be updated during run
 non-spin polarized calculation
 Variant of blocked Davidson
 Davidson routine will perform the subspace rotation
 perform sub-space diagonalisation
    after iterative eigenvector-optimisation
 modified Broyden-mixing scheme, WC =      100.0
 initial mixing is a Kerker type mixing with AMIX =  0.4000 and BMIX =      1.0000
 Hartree-type preconditioning will be used
 using additional bands            6
 reciprocal scheme for non local part
 use partial core corrections
 calculate Harris-corrections to forces 
   (improved forces if not selfconsistent)
 use gradient corrections 
 use of overlap-Matrix (Vanderbilt PP)
 Gauss-broadening in eV      SIGMA  =   0.10


--------------------------------------------------------------------------------------------------------


  energy-cutoff  :      600.00
  volume of cell :       42.63
      direct lattice vectors                 reciprocal lattice vectors
     0.521135183 -3.453614079  0.873214790     0.043531180 -0.298864593 -0.062812260
     3.045984138  0.793530834 -1.664690718     0.241616742 -0.004144049 -0.160586987
     2.034762972 -0.348947487  3.070478285     0.118615097  0.082747507  0.256481517

  length of vectors
     3.600213348  3.560745110  3.699981297     0.308480775  0.290144798  0.294447719


 
 k-points in units of 2pi/SCALE and weight: KPOINTS created by Atomic Simulation Env
   0.05047038 -0.02753264  0.00413528       0.031
   0.06135317 -0.10224879 -0.01156778       0.031
   0.02870479  0.12189965  0.03554141       0.031
   0.03958758  0.04718351  0.01983835       0.031
   0.11087456 -0.02856865 -0.03601146       0.031
   0.12175736 -0.10328480 -0.05171453       0.031
   0.08910897  0.12086364 -0.00460533       0.031
   0.09999177  0.04614749 -0.02030840       0.031
  -0.07033799 -0.02546062  0.08442878       0.031
  -0.05945520 -0.10017677  0.06872571       0.031
  -0.09210358  0.12397168  0.11583491       0.031
  -0.08122079  0.04925553  0.10013184       0.031
  -0.00993381 -0.02649663  0.04428203       0.031
   0.00094899 -0.10121278  0.02857897       0.031
  -0.03169940  0.12293567  0.07568816       0.031
  -0.02081660  0.04821952  0.05998510       0.031
   0.08012415 -0.00684577  0.06825566       0.031
   0.09100695 -0.08156191  0.05255260       0.031
   0.05835856  0.14258653  0.09966179       0.031
   0.06924136  0.06787038  0.08395873       0.031
   0.14052834 -0.00788178  0.02810892       0.031
   0.15141113 -0.08259793  0.01240585       0.031
   0.11876275  0.14155052  0.05951505       0.031
   0.12964554  0.06683437  0.04381198       0.031
  -0.04068422 -0.00477374  0.14854916       0.031
  -0.02980142 -0.07948989  0.13284609       0.031
  -0.06244981  0.14465856  0.17995529       0.031
  -0.05156701  0.06994241  0.16425222       0.031
   0.01971997 -0.00580975  0.10840241       0.031
   0.03060276 -0.08052590  0.09269934       0.031
  -0.00204562  0.14362254  0.13980854       0.031
   0.00883717  0.06890640  0.12410547       0.031
 
 k-points in reciprocal lattice and weights: KPOINTS created by Atomic Simulation Env
   0.12500000  0.12500000  0.12500000       0.031
   0.37500000  0.12500000  0.12500000       0.031
  -0.37500000  0.12500000  0.12500000       0.031
  -0.12500000  0.12500000  0.12500000       0.031
   0.12500000  0.37500000  0.12500000       0.031
   0.37500000  0.37500000  0.12500000       0.031
  -0.37500000  0.37500000  0.12500000       0.031
  -0.12500000  0.37500000  0.12500000       0.031
   0.12500000 -0.37500000  0.12500000       0.031
   0.37500000 -0.37500000  0.12500000       0.031
  -0.37500000 -0.37500000  0.12500000       0.031
  -0.12500000 -0.37500000  0.12500000       0.031
   0.12500000 -0.12500000  0.12500000       0.031
   0.37500000 -0.12500000  0.12500000       0.031
  -0.37500000 -0.12500000  0.12500000       0.031
  -0.12500000 -0.12500000  0.12500000       0.031
   0.12500000  0.12500000  0.37500000       0.031
   0.37500000  0.12500000  0.37500000       0.031
  -0.37500000  0.12500000  0.37500000       0.031
  -0.12500000  0.12500000  0.37500000       0.031
   0.12500000  0.37500000  0.37500000       0.031
   0.37500000  0.37500000  0.37500000       0.031
  -0.37500000  0.37500000  0.37500000       0.031
  -0.12500000  0.37500000  0.37500000       0.031
   0.12500000 -0.37500000  0.37500000       0.031
   0.37500000 -0.37500000  0.37500000       0.031
  -0.37500000 -0.37500000  0.37500000       0.031
  -0.12500000 -0.37500000  0.37500000       0.031
   0.12500000 -0.12500000  0.37500000       0.031
   0.37500000 -0.12500000  0.37500000       0.031
  -0.37500000 -0.12500000  0.37500000       0.031
  -0.12500000 -0.12500000  0.37500000       0.031
 
 position of ions in fractional coordinates (direct lattice) 
   0.12500000  0.12500000  0.62500000
   0.37500000  0.37500000  0.87500000
   0.12500000  0.62500000  0.12500000
   0.37500000  0.87500000  0.37500000
   0.62500000  0.12500000  0.12500000
   0.87500000  0.37500000  0.37500000
   0.62500000  0.62500000  0.62500000
   0.87500000  0.87500000  0.87500000
 
 position of ions in cartesian coordinates  (Angst):
   1.71761677 -0.55060258  1.82011444
   3.11808735 -1.30286027  2.38986503
   2.22322736  0.02063658 -0.54747006
   3.62369793 -0.73162111  0.02228052
   0.96080288 -2.10293588  0.72148269
   2.36127345 -2.85519356  1.29123328
   3.50117643 -1.88064421  1.42437647
   4.90164701 -2.63290189  1.99412706
 


--------------------------------------------------------------------------------------------------------


 k-point   1 :   0.1250 0.1250 0.1250  plane waves:    1419
 k-point   2 :   0.3750 0.1250 0.1250  plane waves:    1417
 k-point   3 :  -0.3750 0.1250 0.1250  plane waves:    1428
 k-point   4 :  -0.1250 0.1250 0.1250  plane waves:    1421
 k-point   5 :   0.1250 0.3750 0.1250  plane waves:    1426
 k-point   6 :   0.3750 0.3750 0.1250  plane waves:    1416
 k-point   7 :  -0.3750 0.3750 0.1250  plane waves:    1425
 k-point   8 :  -0.1250 0.3750 0.1250  plane waves:    1425
 k-point   9 :   0.1250-0.3750 0.1250  plane waves:    1426
 k-point  10 :   0.3750-0.3750 0.1250  plane waves:    1426
 k-point  11 :  -0.3750-0.3750 0.1250  plane waves:    1438
 k-point  12 :  -0.1250-0.3750 0.1250  plane waves:    1430
 k-point  13 :   0.1250-0.1250 0.1250  plane waves:    1423
 k-point  14 :   0.3750-0.1250 0.1250  plane waves:    1428
 k-point  15 :  -0.3750-0.1250 0.1250  plane waves:    1432
 k-point  16 :  -0.1250-0.1250 0.1250  plane waves:    1422
 k-point  17 :   0.1250 0.1250 0.3750  plane waves:    1416
 k-point  18 :   0.3750 0.1250 0.3750  plane waves:    1415
 k-point  19 :  -0.3750 0.1250 0.3750  plane waves:    1417
 k-point  20 :  -0.1250 0.1250 0.3750  plane waves:    1411
 k-point  21 :   0.1250 0.3750 0.3750  plane waves:    1427
 k-point  22 :   0.3750 0.3750 0.3750  plane waves:    1426
 k-point  23 :  -0.3750 0.3750 0.3750  plane waves:    1414
 k-point  24 :  -0.1250 0.3750 0.3750  plane waves:    1418
 k-point  25 :   0.1250-0.3750 0.3750  plane waves:    1427
 k-point  26 :   0.3750-0.3750 0.3750  plane waves:    1422
 k-point  27 :  -0.3750-0.3750 0.3750  plane waves:    1425
 k-point  28 :  -0.1250-0.3750 0.3750  plane waves:    1433
 k-point  29 :   0.1250-0.1250 0.3750  plane waves:    1412
 k-point  30 :   0.3750-0.1250 0.3750  plane waves:    1420
 k-point  31 :  -0.3750-0.1250 0.3750  plane waves:    1425
 k-point  32 :  -0.1250-0.1250 0.3750  plane waves:    1415

 maximum and minimum number of plane-waves per node :      1438     1411

 maximum number of plane-waves:      1438
 maximum index in each direction: 
   IXMAX=    7   IYMAX=    7   IZMAX=    7
   IXMIN=   -7   IYMIN=   -7   IZMIN=   -7


 serial   3D FFT for wavefunctions

 total amount of memory used by VASP MPI-rank0    51173. kBytes
=======================================================================

   base      :      30000. kBytes
   nonl-proj :       3129. kBytes
   fftplans  :       3594. kBytes
   grid      :       5967. kBytes
   one-center:         24. kBytes
   wavefun   :       8459. kBytes
 
     INWAV:  cpu time    0.0000: real time    0.0000
 Broyden mixing: mesh for mixing (old mesh)
   NGX = 15   NGY = 15   NGZ = 15
  (NGX  = 60   NGY  = 56   NGZ  = 60)
  gives a total of   3375 points

 initial charge density was supplied:
 charge density of overlapping atoms calculated
 number of electron      32.0000000 magnetization 
 keeping initial charge density in first step


--------------------------------------------------------------------------------------------------------


 Maximum index for augmentation-charges         3392 (set IRDMAX)


--------------------------------------------------------------------------------------------------------


 First call to EWALD:  gamma=   0.507
 Maximum number of real-space cells 3x 3x 3
 Maximum number of reciprocal cells 3x 3x 3

    FEWALD:  cpu time    0.0005: real time    0.0005


--------------------------------------- Iteration      1(   1)  ---------------------------------------


    POTLOK:  cpu time    0.0196: real time    0.0196
    SETDIJ:  cpu time    0.0019: real time    0.0019
     EDDAV:  cpu time    0.4201: real time    0.4201
       DOS:  cpu time    0.0003: real time    0.0003
    --------------------------------------------
      LOOP:  cpu time    0.4419: real time    0.4420

 eigenvalue-minimisations  :  1408
 total energy-change (2. order) : 0.1188920E+03  (-0.1933217E+04)
 number of electron      32.0000000 magnetization 
 augmentation part       32.0000000 magnetization 

 Free energy of the ion-electron system (eV)
  ---------------------------------------------------
  alpha Z        PSCENC =       123.33301175
  Ewald energy   TEWEN  =     -1362.79782236
  -Hartree energ DENC   =       -86.99369271
  -exchange      EXHF   =         0.00000000
  -V(xc)+E(xc)   XCENC  =       112.13848669
  PAW double counting   =       868.17637104     -872.73161751
  entropy T*S    EENTRO =        -0.00510069
  eigenvalues    EBANDS =       160.57005209
  atomic energy  EATOM  =      1177.20230207
  Solvation  Ediel_sol  =         0.00000000
  ---------------------------------------------------
  free energy    TOTEN  =       118.89199036 eV

  energy without entropy =      118.89709106  energy(sigma->0) =      118.89454071


--------------------------------------------------------------------------------------------------------




--------------------------------------- Iteration      1(   2)  ---------------------------------------


     EDDAV:  cpu time    0.6303: real time    0.6304
       DOS:  cpu time    0.0006: real time    0.0006
    --------------------------------------------
      LOOP:  cpu time    0.6309: real time    0.6309

 eigenvalue-minimisations  :  1826
 total energy-change (2. order) :-0.1687612E+03  (-0.1533710E+03)
 number of electron      32.0000000 magnetization 
 augmentation part       32.0000000 magnetization 

 Free energy of the ion-electron system (eV)
  ---------------------------------------------------
  alpha Z        PSCENC =       123.33301175
  Ewald energy   TEWEN  =     -1362.79782236
  -Hartree energ DENC   =       -86.99369271
  -exchange      EXHF   =         0.00000000
  -V(xc)+E(xc)   XCENC  =       112.13848669
  PAW double counting   =       868.17637104     -872.73161751
  entropy T*S    EENTRO =        -0.00168190
  eigenvalues    EBANDS =        -8.19455340
  atomic energy  EATOM  =      1177.20230207
  Solvation  Ediel_sol  =         0.00000000
  ---------------------------------------------------
  free energy    TOTEN  =       -49.86919632 eV

  energy without entropy =      -49.86751443  energy(sigma->0) =      -49.86835538


--------------------------------------------------------------------------------------------------------




--------------------------------------- Iteration      1(   3)  ---------------------------------------


     EDDAV:  cpu time    0.7512: real time    0.7512
       DOS:  cpu time    0.0006: real time    0.0006
    --------------------------------------------
      LOOP:  cpu time    0.7518: real time    0.7518

 eigenvalue-minimisations  :  1798
 total energy-change (2. order) :-0.7466299E+01  (-0.7299522E+01)
 number of electron      32.0000000 magnetization 
 augmentation part       32.0000000 magnetization 

 Free energy of the ion-electron system (eV)
  ---------------------------------------------------
  alpha Z        PSCENC =       123.33301175
  Ewald energy   TEWEN  =     -1362.79782236
  -Hartree energ DENC   =       -86.99369271
  -exchange      EXHF   =         0.00000000
  -V(xc)+E(xc)   XCENC  =       112.13848669
  PAW double counting   =       868.17637104     -872.73161751
  entropy T*S    EENTRO =        -0.00410715
  eigenvalues    EBANDS =       -15.65842700
  atomic energy  EATOM  =      1177.20230207
  Solvation  Ediel_sol  =         0.00000000
  ---------------------------------------------------
  free energy    TOTEN  =       -57.33549519 eV

  energy without entropy =      -57.33138803  energy(sigma->0) =      -57.33344161


--------------------------------------------------------------------------------------------------------




--------------------------------------- Iteration      1(   4)  ---------------------------------------


     EDDAV:  cpu time    0.6842: real time    0.6843
       DOS:  cpu time    0.0004: real time    0.0004
    --------------------------------------------
      LOOP:  cpu time    0.6846: real time    0.6846

 eigenvalue-minimisations  :  1760
 total energy-change (2. order) :-0.1330282E+00  (-0.1326577E+00)
 number of electron      32.0000000 magnetization 
 augmentation part       32.0000000 magnetization 

 Free energy of the ion-electron system (eV)
  ---------------------------------------------------
  alpha Z        PSCENC =       123.33301175
  Ewald energy   TEWEN  =     -1362.79782236
  -Hartree energ DENC   =       -86.99369271
  -exchange      EXHF   =         0.00000000
  -V(xc)+E(xc)   XCENC  =       112.13848669
  PAW double counting   =       868.17637104     -872.73161751
  entropy T*S    EENTRO =        -0.00412983
  eigenvalues    EBANDS =       -15.79143249
  atomic energy  EATOM  =      1177.20230207
  Solvation  Ediel_sol  =         0.00000000
  ---------------------------------------------------
  free energy    TOTEN  =       -57.46852335 eV

  energy without entropy =      -57.46439352  energy(sigma->0) =      -57.46645844


--------------------------------------------------------------------------------------------------------




--------------------------------------- Iteration      1(   5)  ---------------------------------------


     EDDAV:  cpu time    0.5430: real time    0.5430
       DOS:  cpu time    0.0004: real time    0.0004
    CHARGE:  cpu time    0.0436: real time    0.0436
    MIXING:  cpu time    0.0006: real time    0.0006
    --------------------------------------------
      LOOP:  cpu time    0.5876: real time    0.5877

 eigenvalue-minimisations  :  1832
 total energy-change (2. order) :-0.3202688E-02  (-0.3201668E-02)
 number of electron      32.0000001 magnetization 
 augmentation part        0.9016605 magnetization 

 Broyden mixing:
  rms(total) = 0.16060E+01    rms(broyden)= 0.16059E+01
  rms(prec ) = 0.35283E+01
  weight for this iteration     100.00

 Free energy of the ion-electron system (eV)
  ---------------------------------------------------
  alpha Z        PSCENC =       123.33301175
  Ewald energy   TEWEN  =     -1362.79782236
  -Hartree energ DENC   =       -86.99369271
  -exchange      EXHF   =         0.00000000
  -V(xc)+E(xc)   XCENC  =       112.13848669
  PAW double counting   =       868.17637104     -872.73161751
  entropy T*S    EENTRO =        -0.00413024
  eigenvalues    EBANDS =       -15.79463477
  atomic energy  EATOM  =      1177.20230207
  Solvation  Ediel_sol  =         0.00000000
  ---------------------------------------------------
  free energy    TOTEN  =       -57.47172604 eV

  energy without entropy =      -57.46759580  energy(sigma->0) =      -57.46966092


--------------------------------------------------------------------------------------------------------




--------------------------------------- Iteration      1(   6)  ---------------------------------------


    POTLOK:  cpu time    0.0214: real time    0.0214
    SETDIJ:  cpu time    0.0021: real time    0.0021
     EDDAV:  cpu time    0.4771: real time    0.4771
       DOS:  cpu time    0.0004: real time    0.0004
    CHARGE:  cpu time    0.0414: real time    0.0414
    MIXING:  cpu time    0.0007: real time    0.0007
    --------------------------------------------
      LOOP:  cpu time    0.5431: real time    0.5431

 eigenvalue-minimisations  :  1572
 total energy-change (2. order) : 0.5191363E+01  (-0.4472674E+00)
 number of electron      32.0000001 magnetization 
 augmentation part        0.8611704 magnetization 

 Broyden mixing:
  rms(total) = 0.91576E+00    rms(broyden)= 0.91576E+00
  rms(prec ) = 0.17762E+01
  weight for this iteration     100.00

 eigenvalues of (default mixing * dielectric matrix)
  average eigenvalue GAMMA=   2.1032
  2.1032

 Free energy of the ion-electron system (eV)
  ---------------------------------------------------
  alpha Z        PSCENC =       123.33301175
  Ewald energy   TEWEN  =     -1362.79782236
  -Hartree energ DENC   =      -111.35770979
  -exchange      EXHF   =         0.00000000
  -V(xc)+E(xc)   XCENC  =       113.97497830
  PAW double counting   =      1710.56563743    -1715.90187747
  entropy T*S    EENTRO =        -0.00182700
  eigenvalues    EBANDS =        12.70294356
  atomic energy  EATOM  =      1177.20230207
  Solvation  Ediel_sol  =         0.00000000
  ---------------------------------------------------
  free energy    TOTEN  =       -52.28036352 eV

  energy without entropy =      -52.27853652  energy(sigma->0) =      -52.27945002


--------------------------------------------------------------------------------------------------------




--------------------------------------- Iteration      1(   7)  ---------------------------------------


    POTLOK:  cpu time    0.0214: real time    0.0214
    SETDIJ:  cpu time    0.0021: real time    0.0021
     EDDAV:  cpu time    0.5254: real time    0.5254
       DOS:  cpu time    0.0004: real time    0.0004
    CHARGE:  cpu time    0.0436: real time    0.0436
    MIXING:  cpu time    0.0007: real time    0.0007
    --------------------------------------------
      LOOP:  cpu time    0.5937: real time    0.5937

 eigenvalue-minimisations  :  1694
 total energy-change (2. order) : 0.1353304E+01  (-0.4514752E+00)
 number of electron      32.0000001 magnetization 
 augmentation part        0.8225591 magnetization 

 Broyden mixing:
  rms(total) = 0.28077E+00    rms(broyden)= 0.28076E+00
  rms(prec ) = 0.33976E+00
  weight for this iteration     100.00

 eigenvalues of (default mixing * dielectric matrix)
  average eigenvalue GAMMA=   2.1808
  2.1808  2.1808

 Free energy of the ion-electron system (eV)
  ---------------------------------------------------
  alpha Z        PSCENC =       123.33301175
  Ewald energy   TEWEN  =     -1362.79782236
  -Hartree energ DENC   =      -137.26898103
  -exchange      EXHF   =         0.00000000
  -V(xc)+E(xc)   XCENC  =       116.00267592
  PAW double counting   =      3223.36120824    -3229.35454147
  entropy T*S    EENTRO =        -0.00068748
  eigenvalues    EBANDS =        38.59577507
  atomic energy  EATOM  =      1177.20230207
  Solvation  Ediel_sol  =         0.00000000
  ---------------------------------------------------
  free energy    TOTEN  =       -50.92705931 eV

  energy without entropy =      -50.92637183  energy(sigma->0) =      -50.92671557


--------------------------------------------------------------------------------------------------------




--------------------------------------- Iteration      1(   8)  ---------------------------------------


    POTLOK:  cpu time    0.0236: real time    0.0236
    SETDIJ:  cpu time    0.0023: real time    0.0023
     EDDAV:  cpu time    0.5979: real time    0.5979
       DOS:  cpu time    0.0005: real time    0.0005
    CHARGE:  cpu time    0.0565: real time    0.0565
    MIXING:  cpu time    0.0009: real time    0.0009
    --------------------------------------------
      LOOP:  cpu time    0.6818: real time    0.6818

 eigenvalue-minimisations  :  1570
 total energy-change (2. order) :-0.2544716E-01  (-0.3287312E-01)
 number of electron      32.0000001 magnetization 
 augmentation part        0.8194977 magnetization 

 Broyden mixing:
  rms(total) = 0.38656E-01    rms(broyden)= 0.38654E-01
  rms(prec ) = 0.74743E-01
  weight for this iteration     100.00

 eigenvalues of (default mixing * dielectric matrix)
  average eigenvalue GAMMA=   1.7352
  1.2925  2.3227  1.5905

 Free energy of the ion-electron system (eV)
  ---------------------------------------------------
  alpha Z        PSCENC =       123.33301175
  Ewald energy   TEWEN  =     -1362.79782236
  -Hartree energ DENC   =      -135.88784816
  -exchange      EXHF   =         0.00000000
  -V(xc)+E(xc)   XCENC  =       115.96503874
  PAW double counting   =      3845.43703012    -3851.31585147
  entropy T*S    EENTRO =        -0.00129388
  eigenvalues    EBANDS =        37.11292673
  atomic energy  EATOM  =      1177.20230207
  Solvation  Ediel_sol  =         0.00000000
  ---------------------------------------------------
  free energy    TOTEN  =       -50.95250647 eV

  energy without entropy =      -50.95121259  energy(sigma->0) =      -50.95185953


--------------------------------------------------------------------------------------------------------




--------------------------------------- Iteration      1(   9)  ---------------------------------------


    POTLOK:  cpu time    0.0290: real time    0.0290
    SETDIJ:  cpu time    0.0029: real time    0.0029
     EDDAV:  cpu time    0.7017: real time    0.7017
       DOS:  cpu time    0.0006: real time    0.0006
    CHARGE:  cpu time    0.0578: real time    0.0668
    MIXING:  cpu time    0.0010: real time    0.0010
    --------------------------------------------
      LOOP:  cpu time    0.7930: real time    0.8020

 eigenvalue-minimisations  :  1714
 total energy-change (2. order) : 0.1137628E-02  (-0.8465298E-03)
 number of electron      32.0000001 magnetization 
 augmentation part        0.8183410 magnetization 

 Broyden mixing:
  rms(total) = 0.14647E-01    rms(broyden)= 0.14646E-01
  rms(prec ) = 0.22397E-01
  weight for this iteration     100.00

 eigenvalues of (default mixing * dielectric matrix)
  average eigenvalue GAMMA=   1.8121
  1.0469  2.1471  2.1471  1.9071

 Free energy of the ion-electron system (eV)
  ---------------------------------------------------
  alpha Z        PSCENC =       123.33301175
  Ewald energy   TEWEN  =     -1362.79782236
  -Hartree energ DENC   =      -137.11879857
  -exchange      EXHF   =         0.00000000
  -V(xc)+E(xc)   XCENC  =       116.06327111
  PAW double counting   =      3916.95192236    -3922.84858432
  entropy T*S    EENTRO =        -0.00105957
  eigenvalues    EBANDS =        38.26438869
  atomic energy  EATOM  =      1177.20230207
  Solvation  Ediel_sol  =         0.00000000
  ---------------------------------------------------
  free energy    TOTEN  =       -50.95136884 eV

  energy without entropy =      -50.95030928  energy(sigma->0) =      -50.95083906


--------------------------------------------------------------------------------------------------------




--------------------------------------- Iteration      1(  10)  ---------------------------------------


    POTLOK:  cpu time    0.0304: real time    0.0304
    SETDIJ:  cpu time    0.0031: real time    0.0031
     EDDAV:  cpu time    0.6748: real time    0.6749
       DOS:  cpu time    0.0004: real time    0.0004
    CHARGE:  cpu time    0.0435: real time    0.0435
    MIXING:  cpu time    0.0007: real time    0.0007
    --------------------------------------------
      LOOP:  cpu time    0.7530: real time    0.7531

 eigenvalue-minimisations  :  1690
 total energy-change (2. order) :-0.1281598E-03  (-0.6717712E-04)
 number of electron      32.0000001 magnetization 
 augmentation part        0.8182147 magnetization 

 Broyden mixing:
  rms(total) = 0.32177E-02    rms(broyden)= 0.32175E-02
  rms(prec ) = 0.57041E-02
  weight for this iteration     100.00

 eigenvalues of (default mixing * dielectric matrix)
  average eigenvalue GAMMA=   1.7669
  2.5183  2.5183  1.7585  1.0900  0.9491

 Free energy of the ion-electron system (eV)
  ---------------------------------------------------
  alpha Z        PSCENC =       123.33301175
  Ewald energy   TEWEN  =     -1362.79782236
  -Hartree energ DENC   =      -137.20420859
  -exchange      EXHF   =         0.00000000
  -V(xc)+E(xc)   XCENC  =       116.07288079
  PAW double counting   =      3916.80325106    -3922.68648646
  entropy T*S    EENTRO =        -0.00105554
  eigenvalues    EBANDS =        38.32663029
  atomic energy  EATOM  =      1177.20230207
  Solvation  Ediel_sol  =         0.00000000
  ---------------------------------------------------
  free energy    TOTEN  =       -50.95149700 eV

  energy without entropy =      -50.95044146  energy(sigma->0) =      -50.95096923


--------------------------------------------------------------------------------------------------------




--------------------------------------- Iteration      1(  11)  ---------------------------------------


    POTLOK:  cpu time    0.0222: real time    0.0222
    SETDIJ:  cpu time    0.0022: real time    0.0022
     EDDAV:  cpu time    0.4988: real time    0.4988
       DOS:  cpu time    0.0004: real time    0.0004
    CHARGE:  cpu time    0.0413: real time    0.0413
    MIXING:  cpu time    0.0007: real time    0.0007
    --------------------------------------------
      LOOP:  cpu time    0.5657: real time    0.5657

 eigenvalue-minimisations  :  1718
 total energy-change (2. order) :-0.5771775E-05  (-0.5615700E-05)
 number of electron      32.0000001 magnetization 
 augmentation part        0.8182923 magnetization 

 Broyden mixing:
  rms(total) = 0.77735E-03    rms(broyden)= 0.77735E-03
  rms(prec ) = 0.15112E-02
  weight for this iteration     100.00

 eigenvalues of (default mixing * dielectric matrix)
  average eigenvalue GAMMA=   1.7798
  2.5825  2.0989  2.0989  1.9065  0.9959  0.9959

 Free energy of the ion-electron system (eV)
  ---------------------------------------------------
  alpha Z        PSCENC =       123.33301175
  Ewald energy   TEWEN  =     -1362.79782236
  -Hartree energ DENC   =      -137.17226591
  -exchange      EXHF   =         0.00000000
  -V(xc)+E(xc)   XCENC  =       116.07145535
  PAW double counting   =      3916.67549316    -3922.55423518
  entropy T*S    EENTRO =        -0.00107048
  eigenvalues    EBANDS =        38.29162883
  atomic energy  EATOM  =      1177.20230207
  Solvation  Ediel_sol  =         0.00000000
  ---------------------------------------------------
  free energy    TOTEN  =       -50.95150278 eV

  energy without entropy =      -50.95043229  energy(sigma->0) =      -50.95096753


--------------------------------------------------------------------------------------------------------




--------------------------------------- Iteration      1(  12)  ---------------------------------------


    POTLOK:  cpu time    0.0229: real time    0.0229
    SETDIJ:  cpu time    0.0022: real time    0.0022
     EDDAV:  cpu time    0.4903: real time    0.4903
       DOS:  cpu time    0.0004: real time    0.0004
    --------------------------------------------
      LOOP:  cpu time    0.5159: real time    0.5159

 eigenvalue-minimisations  :  1696
 total energy-change (2. order) : 0.8895111E-06  (-0.5278991E-06)
 number of electron      32.0000001 magnetization 
 augmentation part        0.8182923 magnetization 

 Free energy of the ion-electron system (eV)
  ---------------------------------------------------
  alpha Z        PSCENC =       123.33301175
  Ewald energy   TEWEN  =     -1362.79782236
  -Hartree energ DENC   =      -137.17550072
  -exchange      EXHF   =         0.00000000
  -V(xc)+E(xc)   XCENC  =       116.07179488
  PAW double counting   =      3917.27049491    -3923.14965245
  entropy T*S    EENTRO =        -0.00107598
  eigenvalues    EBANDS =        38.29494602
  atomic energy  EATOM  =      1177.20230207
  Solvation  Ediel_sol  =         0.00000000
  ---------------------------------------------------
  free energy    TOTEN  =       -50.95150189 eV

  energy without entropy =      -50.95042591  energy(sigma->0) =      -50.95096390


--------------------------------------------------------------------------------------------------------




 average (electrostatic) potential at core
  the test charge radii are     0.6991
  (the norm of the test charge is              1.0000)
       1 -44.8538       2 -44.8538       3 -44.8538       4 -44.8538       5 -44.8538
       6 -44.8538       7 -44.8538       8 -44.8538
 
 
 
 E-fermi :  11.2295     XC(G=0): -13.5217     alpha+bet :-18.8091

 Fermi energy:        11.2295228913

 k-point     1 :       0.1250    0.1250    0.1250
  band No.  band energies     occupation 
      1     -12.0359      2.00000
      2      -6.9997      2.00000
      3      -4.7769      2.00000
      4      -4.5349      2.00000
      5      -1.8233      2.00000
      6      -1.2740      2.00000
      7      -0.4342      2.00000
      8       0.1881      2.00000
      9       2.5305      2.00000
     10       2.9943      2.00000
     11       5.8333      2.00000
     12       7.1547      2.00000
     13       7.6284      2.00000
     14       8.4608      2.00000
     15       9.3046      2.00000
     16       9.8623      2.00000
     17      11.4549      0.00144
     18      12.1486      0.00000
     19      12.4519      0.00000
     20      14.1374      0.00000
     21      16.8548      0.00000
     22      16.9479      0.00000

 k-point     2 :       0.3750    0.1250    0.1250
  band No.  band energies     occupation 
      1     -10.8460      2.00000
      2      -7.8948      2.00000
      3      -7.5428      2.00000
      4      -4.4954      2.00000
      5      -1.2245      2.00000
      6      -0.4856      2.00000
      7       1.1131      2.00000
      8       2.3948      2.00000
      9       2.8619      2.00000
     10       3.1852      2.00000
     11       3.6948      2.00000
     12       5.1094      2.00000
     13       6.6348      2.00000
     14       7.5671      2.00000
     15       8.2640      2.00000
     16      10.6592      2.00000
     17      12.3725      0.00000
     18      14.2591      0.00000
     19      14.7124      0.00000
     20      14.8688      0.00000
     21      16.1152      0.00000
     22      16.7430      0.00000

 k-point     3 :      -0.3750    0.1250    0.1250
  band No.  band energies     occupation 
      1     -10.5209      2.00000
      2      -8.4769      2.00000
      3      -7.3890      2.00000
      4      -5.1100      2.00000
      5      -0.6679      2.00000
      6       0.1194      2.00000
      7       1.3127      2.00000
      8       2.0180      2.00000
      9       3.0245      2.00000
     10       3.8425      2.00000
     11       4.1723      2.00000
     12       4.5969      2.00000
     13       6.3928      2.00000
     14       6.5519      2.00000
     15       8.2813      2.00000
     16      10.2827      2.00000
     17      12.3615      0.00000
     18      12.9470      0.00000
     19      15.0152      0.00000
     20      15.9504      0.00000
     21      17.3087      0.00000
     22      17.7854      0.00000

 k-point     4 :      -0.1250    0.1250    0.1250
  band No.  band energies     occupation 
      1     -11.9303      2.00000
      2      -6.4114      2.00000
      3      -5.9870      2.00000
      4      -5.3651      2.00000
      5      -0.8379      2.00000
      6       0.0420      2.00000
      7       0.7692      2.00000
      8       0.9011      2.00000
      9       1.0465      2.00000
     10       1.2061      2.00000
     11       6.5235      2.00000
     12       7.5260      2.00000
     13       7.6726      2.00000
     14       8.5250      2.00000
     15       9.1300      2.00000
     16       9.7589      2.00000
     17      10.3186      2.00000
     18      11.8189      0.00000
     19      14.2754      0.00000
     20      14.3803      0.00000
     21      14.8764      0.00000
     22      16.9090      0.00000

 k-point     5 :       0.1250    0.3750    0.1250
  band No.  band energies     occupation 
      1     -10.8526      2.00000
      2      -9.2042      2.00000
      3      -4.7568      2.00000
      4      -4.1920      2.00000
      5      -2.2593      2.00000
      6      -1.1345      2.00000
      7      -0.1999      2.00000
      8       2.5120      2.00000
      9       2.9850      2.00000
     10       3.4797      2.00000
     11       3.6998      2.00000
     12       4.8430      2.00000
     13       6.3305      2.00000
     14       6.5567      2.00000
     15       9.9713      2.00000
     16      10.5183      2.00000
     17      12.8662      0.00000
     18      13.5455      0.00000
     19      14.5328      0.00000
     20      17.2933      0.00000
     21      17.6360      0.00000
     22      18.2369      0.00000

 k-point     6 :       0.3750    0.3750    0.1250
  band No.  band energies     occupation 
      1      -9.4473      2.00000
      2      -9.1194      2.00000
      3      -7.6809      2.00000
      4      -4.4595      2.00000
      5      -1.5153      2.00000
      6      -0.2981      2.00000
      7      -0.1273      2.00000
      8       0.4946      2.00000
      9       1.6637      2.00000
     10       3.9834      2.00000
     11       5.0687      2.00000
     12       5.9737      2.00000
     13       7.7053      2.00000
     14       8.2722      2.00000
     15       8.9844      2.00000
     16       9.0882      2.00000
     17      13.5391      0.00000
     18      14.7311      0.00000
     19      15.4788      0.00000
     20      16.5991      0.00000
     21      16.7206      0.00000
     22      18.1048      0.00000

 k-point     7 :      -0.3750    0.3750    0.1250
  band No.  band energies     occupation 
      1      -9.9595      2.00000
      2      -8.0547      2.00000
      3      -7.1555      2.00000
      4      -6.3601      2.00000
      5      -1.4006      2.00000
      6      -1.2475      2.00000
      7       0.2839      2.00000
      8       2.5740      2.00000
      9       3.5483      2.00000
     10       4.2576      2.00000
     11       4.6039      2.00000
     12       4.8438      2.00000
     13       4.8460      2.00000
     14       8.6618      2.00000
     15       9.2567      2.00000
     16       9.5195      2.00000
     17      13.2298      0.00000
     18      14.7067      0.00000
     19      15.8518      0.00000
     20      16.9322      0.00000
     21      17.0074      0.00000
     22      18.7988      0.00000

 k-point     8 :      -0.1250    0.3750    0.1250
  band No.  band energies     occupation 
      1     -11.0421      2.00000
      2      -8.2216      2.00000
      3      -6.2262      2.00000
      4      -5.0555      2.00000
      5      -0.1444      2.00000
      6      -0.0550      2.00000
      7       0.8064      2.00000
      8       0.9082      2.00000
      9       1.3983      2.00000
     10       2.1218      2.00000
     11       4.3640      2.00000
     12       5.9744      2.00000
     13       7.6050      2.00000
     14       8.2552      2.00000
     15       8.3528      2.00000
     16       8.3582      2.00000
     17      12.5215      0.00000
     18      13.7335      0.00000
     19      16.2747      0.00000
     20      17.4244      0.00000
     21      18.1735      0.00000
     22      18.1980      0.00000

 k-point     9 :       0.1250   -0.3750    0.1250
  band No.  band energies     occupation 
      1     -11.1196      2.00000
      2      -8.7300      2.00000
      3      -4.8981      2.00000
      4      -3.7942      2.00000
      5      -2.7336      2.00000
      6      -0.7789      2.00000
      7      -0.3628      2.00000
      8       1.5481      2.00000
      9       2.5052      2.00000
     10       3.3263      2.00000
     11       3.8214      2.00000
     12       4.8886      2.00000
     13       7.2675      2.00000
     14       7.3054      2.00000
     15       9.7440      2.00000
     16      10.9202      1.99999
     17      12.5755      0.00000
     18      14.5842      0.00000
     19      15.0393      0.00000
     20      15.8367      0.00000
     21      17.4263      0.00000
     22      19.0752      0.00000

 k-point    10 :       0.3750   -0.3750    0.1250
  band No.  band energies     occupation 
      1     -10.5813      2.00000
      2      -7.4691      2.00000
      3      -6.6658      2.00000
      4      -5.7298      2.00000
      5      -2.1278      2.00000
      6      -1.2274      2.00000
      7       0.1700      2.00000
      8       1.5187      2.00000
      9       1.9726      2.00000
     10       2.1975      2.00000
     11       4.9580      2.00000
     12       7.0969      2.00000
     13       7.8472      2.00000
     14       8.3071      2.00000
     15       9.0870      2.00000
     16      10.0078      2.00000
     17      14.0294      0.00000
     18      14.6918      0.00000
     19      15.0745      0.00000
     20      16.3988      0.00000
     21      17.9906      0.00000
     22      18.7146      0.00000

 k-point    11 :      -0.3750   -0.3750    0.1250
  band No.  band energies     occupation 
      1      -8.8697      2.00000
      2      -8.5123      2.00000
      3      -8.4421      2.00000
      4      -6.4476      2.00000
      5      -1.3441      2.00000
      6       0.0633      2.00000
      7       1.2371      2.00000
      8       2.3640      2.00000
      9       3.0394      2.00000
     10       4.4029      2.00000
     11       4.5669      2.00000
     12       5.6898      2.00000
     13       5.7731      2.00000
     14       6.6842      2.00000
     15       6.7453      2.00000
     16       8.8471      2.00000
     17      14.3039      0.00000
     18      15.7190      0.00000
     19      15.8213      0.00000
     20      16.2525      0.00000
     21      18.3116      0.00000
     22      18.4453      0.00000

 k-point    12 :      -0.1250   -0.3750    0.1250
  band No.  band energies     occupation 
      1     -10.4124      2.00000
      2      -9.1528      2.00000
      3      -6.2226      2.00000
      4      -5.7824      2.00000
      5      -0.0148      2.00000
      6       0.4712      2.00000
      7       2.2414      2.00000
      8       2.3931      2.00000
      9       2.4555      2.00000
     10       2.6890      2.00000
     11       3.8934      2.00000
     12       4.6001      2.00000
     13       5.8436      2.00000
     14       6.1138      2.00000
     15       7.3893      2.00000
     16       8.9899      2.00000
     17      13.0775      0.00000
     18      14.3865      0.00000
     19      15.0297      0.00000
     20      15.5608      0.00000
     21      19.4839      0.00000
     22      19.5452      0.00000

 k-point    13 :       0.1250   -0.1250    0.1250
  band No.  band energies     occupation 
      1     -12.1216      2.00000
      2      -6.5267      2.00000
      3      -5.0554      2.00000
      4      -4.0089      2.00000
      5      -2.3495      2.00000
      6      -1.7373      2.00000
      7      -1.0152      2.00000
      8       1.2645      2.00000
      9       2.5068      2.00000
     10       2.8629      2.00000
     11       4.3647      2.00000
     12       6.8014      2.00000
     13       8.4863      2.00000
     14       9.1383      2.00000
     15       9.4051      2.00000
     16      11.1196      1.87979
     17      12.0184      0.00000
     18      12.9640      0.00000
     19      13.1126      0.00000
     20      13.1639      0.00000
     21      14.4667      0.00000
     22      17.5740      0.00000

 k-point    14 :       0.3750   -0.1250    0.1250
  band No.  band energies     occupation 
      1     -11.2317      2.00000
      2      -7.1781      2.00000
      3      -6.6915      2.00000
      4      -5.3692      2.00000
      5      -1.2338      2.00000
      6      -1.1448      2.00000
      7       1.3655      2.00000
      8       1.6196      2.00000
      9       2.0686      2.00000
     10       3.0349      2.00000
     11       3.4901      2.00000
     12       6.8338      2.00000
     13       7.5609      2.00000
     14       7.7839      2.00000
     15       8.4753      2.00000
     16       9.3805      2.00000
     17      13.4595      0.00000
     18      14.3784      0.00000
     19      14.8298      0.00000
     20      15.1877      0.00000
     21      16.8109      0.00000
     22      17.7596      0.00000

 k-point    15 :      -0.3750   -0.1250    0.1250
  band No.  band energies     occupation 
      1     -10.0188      2.00000
      2      -9.1143      2.00000
      3      -6.9234      2.00000
      4      -6.3952      2.00000
      5       0.7044      2.00000
      6       1.1817      2.00000
      7       2.1956      2.00000
      8       2.2382      2.00000
      9       2.6417      2.00000
     10       4.0439      2.00000
     11       4.4449      2.00000
     12       4.4622      2.00000
     13       4.9877      2.00000
     14       5.8205      2.00000
     15       6.8468      2.00000
     16       8.8578      2.00000
     17      13.0577      0.00000
     18      13.6243      0.00000
     19      15.7927      0.00000
     20      16.5010      0.00000
     21      16.7992      0.00000
     22      17.5222      0.00000

 k-point    16 :      -0.1250   -0.1250    0.1250
  band No.  band energies     occupation 
      1     -11.7122      2.00000
      2      -6.7168      2.00000
      3      -6.3817      2.00000
      4      -6.0177      2.00000
      5      -0.0847      2.00000
      6       0.0171      2.00000
      7       0.9707      2.00000
      8       1.1968      2.00000
      9       2.9579      2.00000
     10       3.1107      2.00000
     11       5.4806      2.00000
     12       6.1060      2.00000
     13       6.5937      2.00000
     14       7.1645      2.00000
     15       7.8832      2.00000
     16       8.7774      2.00000
     17      10.6541      2.00000
     18      13.0472      0.00000
     19      13.6546      0.00000
     20      13.6825      0.00000
     21      15.8665      0.00000
     22      18.4880      0.00000

 k-point    17 :       0.1250    0.1250    0.3750
  band No.  band energies     occupation 
      1     -11.1880      2.00000
      2      -7.7215      2.00000
      3      -7.0283      2.00000
      4      -4.5248      2.00000
      5      -0.7783      2.00000
      6      -0.4578      2.00000
      7       0.8443      2.00000
      8       1.2269      2.00000
      9       1.4732      2.00000
     10       3.5964      2.00000
     11       4.4270      2.00000
     12       6.3613      2.00000
     13       6.7033      2.00000
     14       8.3854      2.00000
     15       8.5256      2.00000
     16       8.6419      2.00000
     17      13.6036      0.00000
     18      13.7660      0.00000
     19      14.2171      0.00000
     20      15.8735      0.00000
     21      17.4053      0.00000
     22      17.9540      0.00000

 k-point    18 :       0.3750    0.1250    0.3750
  band No.  band energies     occupation 
      1     -10.5333      2.00000
      2      -8.6077      2.00000
      3      -5.7223      2.00000
      4      -5.3084      2.00000
      5      -1.7763      2.00000
      6      -1.4335      2.00000
      7      -0.5218      2.00000
      8       1.5578      2.00000
      9       2.6825      2.00000
     10       4.5999      2.00000
     11       4.6975      2.00000
     12       4.8555      2.00000
     13       5.7245      2.00000
     14       8.0676      2.00000
     15      10.2848      2.00000
     16      10.8725      2.00000
     17      14.4479      0.00000
     18      15.3310      0.00000
     19      15.5001      0.00000
     20      16.2561      0.00000
     21      16.5361      0.00000
     22      17.3219      0.00000

 k-point    19 :      -0.3750    0.1250    0.3750
  band No.  band energies     occupation 
      1      -9.4045      2.00000
      2      -8.7351      2.00000
      3      -8.6696      2.00000
      4      -3.8253      2.00000
      5      -0.9073      2.00000
      6      -0.5775      2.00000
      7      -0.1403      2.00000
      8       0.7035      2.00000
      9       2.1916      2.00000
     10       4.0590      2.00000
     11       4.1659      2.00000
     12       5.2454      2.00000
     13       7.0993      2.00000
     14       8.6968      2.00000
     15       9.3756      2.00000
     16      10.1288      2.00000
     17      13.3050      0.00000
     18      13.8257      0.00000
     19      15.9326      0.00000
     20      16.5800      0.00000
     21      17.4731      0.00000
     22      18.1740      0.00000

 k-point    20 :      -0.1250    0.1250    0.3750
  band No.  band energies     occupation 
      1     -10.5655      2.00000
      2      -9.1428      2.00000
      3      -6.3125      2.00000
      4      -5.1393      2.00000
      5      -1.0407      2.00000
      6       0.4344      2.00000
      7       0.9258      2.00000
      8       1.6318      2.00000
      9       3.1996      2.00000
     10       4.0994      2.00000
     11       4.3565      2.00000
     12       4.4290      2.00000
     13       6.2842      2.00000
     14       6.9048      2.00000
     15       8.9930      2.00000
     16      10.0360      2.00000
     17      12.1140      0.00000
     18      12.3725      0.00000
     19      16.0971      0.00000
     20      16.2316      0.00000
     21      16.7514      0.00000
     22      17.9722      0.00000

 k-point    21 :       0.1250    0.3750    0.3750
  band No.  band energies     occupation 
      1     -10.1658      2.00000
      2      -8.4741      2.00000
      3      -6.5537      2.00000
      4      -6.1163      2.00000
      5      -1.5472      2.00000
      6      -1.1466      2.00000
      7       1.2645      2.00000
      8       1.6884      2.00000
      9       2.5510      2.00000
     10       2.8035      2.00000
     11       4.8644      2.00000
     12       6.5076      2.00000
     13       7.2269      2.00000
     14       8.2342      2.00000
     15       8.8340      2.00000
     16       9.1992      2.00000
     17      11.9119      0.00000
     18      15.0768      0.00000
     19      15.3476      0.00000
     20      15.7906      0.00000
     21      16.5529      0.00000
     22      20.3135      0.00000

 k-point    22 :       0.3750    0.3750    0.3750
  band No.  band energies     occupation 
      1      -9.3252      2.00000
      2      -9.2223      2.00000
      3      -5.7505      2.00000
      4      -4.2687      2.00000
      5      -3.5019      2.00000
      6      -3.0928      2.00000
      7      -1.8085      2.00000
      8       0.0152      2.00000
      9       3.8469      2.00000
     10       4.9749      2.00000
     11       5.9514      2.00000
     12       6.9945      2.00000
     13       7.7288      2.00000
     14       9.3203      2.00000
     15      10.7091      2.00000
     16      11.3394      0.12017
     17      12.4221      0.00000
     18      14.1042      0.00000
     19      14.7422      0.00000
     20      15.6742      0.00000
     21      16.0847      0.00000
     22      18.5180      0.00000

 k-point    23 :      -0.3750    0.3750    0.3750
  band No.  band energies     occupation 
      1      -9.1876      2.00000
      2      -8.2393      2.00000
      3      -7.8245      2.00000
      4      -4.6952      2.00000
      5      -3.1148      2.00000
      6      -2.9026      2.00000
      7      -0.8626      2.00000
      8       1.3470      2.00000
      9       2.7654      2.00000
     10       4.4519      2.00000
     11       6.6315      2.00000
     12       6.8753      2.00000
     13       7.6982      2.00000
     14       9.8873      2.00000
     15      10.0856      2.00000
     16      10.1898      2.00000
     17      13.5134      0.00000
     18      13.6345      0.00000
     19      14.1274      0.00000
     20      15.6796      0.00000
     21      17.1447      0.00000
     22      17.4513      0.00000

 k-point    24 :      -0.1250    0.3750    0.3750
  band No.  band energies     occupation 
      1      -9.8269      2.00000
      2      -8.3294      2.00000
      3      -6.9419      2.00000
      4      -6.8813      2.00000
      5      -1.3598      2.00000
      6      -1.0197      2.00000
      7       1.2850      2.00000
      8       2.8517      2.00000
      9       3.2864      2.00000
     10       3.5719      2.00000
     11       4.9659      2.00000
     12       5.3001      2.00000
     13       5.6021      2.00000
     14       8.4216      2.00000
     15       8.4989      2.00000
     16       9.0442      2.00000
     17      12.8379      0.00000
     18      13.7880      0.00000
     19      14.5989      0.00000
     20      16.5326      0.00000
     21      18.4035      0.00000
     22      19.3195      0.00000

 k-point    25 :       0.1250   -0.3750    0.3750
  band No.  band energies     occupation 
      1     -10.1312      2.00000
      2      -8.2747      2.00000
      3      -7.5288      2.00000
      4      -5.1099      2.00000
      5      -1.4265      2.00000
      6      -0.5796      2.00000
      7      -0.4755      2.00000
      8       1.1280      2.00000
      9       2.7279      2.00000
     10       4.2040      2.00000
     11       5.0542      2.00000
     12       5.4991      2.00000
     13       8.2844      2.00000
     14       8.4014      2.00000
     15       8.4621      2.00000
     16       9.2592      2.00000
     17      13.2544      0.00000
     18      14.2588      0.00000
     19      14.6259      0.00000
     20      15.6270      0.00000
     21      17.0923      0.00000
     22      19.7395      0.00000

 k-point    26 :       0.3750   -0.3750    0.3750
  band No.  band energies     occupation 
      1     -10.2009      2.00000
      2      -7.9045      2.00000
      3      -5.7830      2.00000
      4      -4.0415      2.00000
      5      -3.6613      2.00000
      6      -3.4332      2.00000
      7      -2.2102      2.00000
      8      -0.0950      2.00000
      9       3.6323      2.00000
     10       5.4045      2.00000
     11       5.6821      2.00000
     12       6.1515      2.00000
     13       9.0468      2.00000
     14       9.6995      2.00000
     15      10.6046      2.00000
     16      11.6124      0.00000
     17      13.7435      0.00000
     18      14.1084      0.00000
     19      14.4911      0.00000
     20      15.5124      0.00000
     21      15.6605      0.00000
     22      18.2715      0.00000

 k-point    27 :      -0.3750   -0.3750    0.3750
  band No.  band energies     occupation 
      1      -9.2232      2.00000
      2      -8.2331      2.00000
      3      -6.8720      2.00000
      4      -6.6000      2.00000
      5      -2.4370      2.00000
      6      -2.2853      2.00000
      7      -1.7455      2.00000
      8       2.5111      2.00000
      9       4.5163      2.00000
     10       5.4026      2.00000
     11       5.5305      2.00000
     12       6.7854      2.00000
     13       7.2130      2.00000
     14       7.9636      2.00000
     15       8.1773      2.00000
     16       8.6065      2.00000
     17      13.6030      0.00000
     18      15.0103      0.00000
     19      15.8195      0.00000
     20      16.7357      0.00000
     21      16.7493      0.00000
     22      18.7709      0.00000

 k-point    28 :      -0.1250   -0.3750    0.3750
  band No.  band energies     occupation 
      1      -8.9048      2.00000
      2      -8.3997      2.00000
      3      -8.1057      2.00000
      4      -7.4275      2.00000
      5      -1.0030      2.00000
      6       0.9315      2.00000
      7       1.6410      2.00000
      8       2.3873      2.00000
      9       3.2118      2.00000
     10       4.0203      2.00000
     11       5.1483      2.00000
     12       5.8196      2.00000
     13       6.0978      2.00000
     14       6.2810      2.00000
     15       6.5324      2.00000
     16       7.7372      2.00000
     17      14.0815      0.00000
     18      14.1806      0.00000
     19      15.1713      0.00000
     20      16.4265      0.00000
     21      19.1535      0.00000
     22      19.2069      0.00000

 k-point    29 :       0.1250   -0.1250    0.3750
  band No.  band energies     occupation 
      1     -11.1550      2.00000
      2      -8.1005      2.00000
      3      -6.6481      2.00000
      4      -4.1755      2.00000
      5      -1.9826      2.00000
      6       0.2472      2.00000
      7       0.4855      2.00000
      8       1.9755      2.00000
      9       2.0986      2.00000
     10       2.5167      2.00000
     11       4.2784      2.00000
     12       5.1894      2.00000
     13       7.8706      2.00000
     14       8.0560      2.00000
     15       8.8887      2.00000
     16      10.5194      2.00000
     17      13.0523      0.00000
     18      13.5761      0.00000
     19      14.5167      0.00000
     20      15.2234      0.00000
     21      15.9296      0.00000
     22      18.3342      0.00000

 k-point    30 :       0.3750   -0.1250    0.3750
  band No.  band energies     occupation 
      1     -10.8123      2.00000
      2      -8.0431      2.00000
      3      -5.8880      2.00000
      4      -5.0173      2.00000
      5      -2.1781      2.00000
      6      -1.4781      2.00000
      7      -0.1312      2.00000
      8       0.4962      2.00000
      9       2.2390      2.00000
     10       3.6767      2.00000
     11       4.9471      2.00000
     12       6.2394      2.00000
     13       6.6131      2.00000
     14       8.0881      2.00000
     15      10.2362      2.00000
     16      11.0035      1.99861
     17      14.6017      0.00000
     18      15.4467      0.00000
     19      15.7421      0.00000
     20      15.9411      0.00000
     21      16.9432      0.00000
     22      17.9508      0.00000

 k-point    31 :      -0.3750   -0.1250    0.3750
  band No.  band energies     occupation 
      1      -9.2873      2.00000
      2      -9.1505      2.00000
      3      -8.0850      2.00000
      4      -4.9895      2.00000
      5      -1.5743      2.00000
      6       0.1520      2.00000
      7       0.8945      2.00000
      8       2.2424      2.00000
      9       2.9863      2.00000
     10       3.6976      2.00000
     11       3.8605      2.00000
     12       4.9050      2.00000
     13       6.3204      2.00000
     14       7.3820      2.00000
     15       8.2270      2.00000
     16       9.0884      2.00000
     17      14.1196      0.00000
     18      14.7216      0.00000
     19      16.3463      0.00000
     20      17.2131      0.00000
     21      17.6373      0.00000
     22      19.5634      0.00000

 k-point    32 :      -0.1250   -0.1250    0.3750
  band No.  band energies     occupation 
      1     -10.2346      2.00000
      2      -9.2295      2.00000
      3      -6.8285      2.00000
      4      -5.8704      2.00000
      5       0.0811      2.00000
      6       0.9992      2.00000
      7       2.1502      2.00000
      8       2.4489      2.00000
      9       3.4142      2.00000
     10       3.8024      2.00000
     11       4.3958      2.00000
     12       4.5493      2.00000
     13       5.3987      2.00000
     14       5.6497      2.00000
     15       6.3624      2.00000
     16       9.1590      2.00000
     17      12.5732      0.00000
     18      14.9609      0.00000
     19      15.3587      0.00000
     20      16.0740      0.00000
     21      16.8217      0.00000
     22      17.3253      0.00000


--------------------------------------------------------------------------------------------------------


 soft charge-density along one line, spin component           1
         0         1         2         3         4         5         6         7         8         9
 total charge-density along one line
 
 pseudopotential strength for first ion, spin component:           1
  9.421  12.510   0.002   0.005  -0.003  -0.010  -0.022   0.012
 12.510  16.610   0.003   0.007  -0.004  -0.013  -0.029   0.017
[...]
      5      -2.4896      2.00000
      6      -0.5816      2.00000
      7       0.8294      2.00000
      8       1.0180      2.00000
      9       1.0721      2.00000
     10       2.4950      2.00000
     11       5.1107      2.00000
     12       6.5891      2.00000
     13       7.4273      2.00000
     14       8.4700      2.00000
     15       8.7324      2.00000
     16      10.3436      2.00000
     17      11.9541      0.00000
     18      14.7879      0.00000
     19      17.0846      0.00000
     20      17.3541      0.00000
     21      17.3938      0.00000
     22      17.6663      0.00000

 k-point    20 :      -0.1250    0.1250    0.3750
  band No.  band energies     occupation 
      1     -10.2800      2.00000
      2      -8.6498      2.00000
      3      -6.1587      2.00000
      4      -4.2977      2.00000
      5      -1.0233      2.00000
      6      -0.8017      2.00000
      7       1.0386      2.00000
      8       2.9682      2.00000
      9       3.5750      2.00000
     10       3.7631      2.00000
     11       4.2745      2.00000
     12       4.4464      2.00000
     13       5.2484      2.00000
     14       5.7587      2.00000
     15       9.6565      2.00000
     16      10.1360      2.00000
     17      10.9501      1.98433
     18      13.8698      0.00000
     19      14.0732      0.00000
     20      14.9062      0.00000
     21      18.9504      0.00000
     22      19.5697      0.00000

 k-point    21 :       0.1250    0.3750    0.3750
  band No.  band energies     occupation 
      1      -9.9364      2.00000
      2      -7.6102      2.00000
      3      -5.8076      2.00000
      4      -5.7221      2.00000
      5      -3.4688      2.00000
      6      -0.8823      2.00000
      7      -0.1876      2.00000
      8       2.3702      2.00000
      9       2.7355      2.00000
     10       4.5981      2.00000
     11       4.9998      2.00000
     12       5.6575      2.00000
     13       7.6736      2.00000
     14       8.1694      2.00000
     15       8.7812      2.00000
     16      11.0100      1.88350
     17      11.7616      0.00000
     18      12.8400      0.00000
     19      14.9651      0.00000
     20      15.5492      0.00000
     21      16.6903      0.00000
     22      19.2503      0.00000

 k-point    22 :       0.3750    0.3750    0.3750
  band No.  band energies     occupation 
      1      -9.1647      2.00000
      2      -8.2633      2.00000
      3      -5.0402      2.00000
      4      -4.9625      2.00000
      5      -3.7079      2.00000
      6      -3.1306      2.00000
      7      -0.3798      2.00000
      8      -0.3077      2.00000
      9       2.0304      2.00000
     10       4.6665      2.00000
     11       5.0515      2.00000
     12       7.8784      2.00000
     13       9.5456      2.00000
     14       9.9823      2.00000
     15      10.7727      2.00000
     16      11.1268      0.93540
     17      11.4048      0.00006
     18      14.0304      0.00000
     19      15.0416      0.00000
     20      15.7172      0.00000
     21      16.1927      0.00000
     22      18.6066      0.00000

 k-point    23 :      -0.3750    0.3750    0.3750
  band No.  band energies     occupation 
      1      -8.2597      2.00000
      2      -7.9034      2.00000
      3      -7.8181      2.00000
      4      -4.7435      2.00000
      5      -3.7900      2.00000
      6      -1.4514      2.00000
      7      -0.6634      2.00000
      8       0.9375      2.00000
      9       1.7738      2.00000
     10       4.5688      2.00000
     11       5.1776      2.00000
     12       6.7491      2.00000
     13       8.1112      2.00000
     14       8.7708      2.00000
     15      10.7894      2.00000
     16      11.8114      0.00000
     17      11.8697      0.00000
     18      15.5744      0.00000
     19      16.6150      0.00000
     20      16.9284      0.00000
     21      17.2752      0.00000
     22      18.2571      0.00000

 k-point    24 :      -0.1250    0.3750    0.3750
  band No.  band energies     occupation 
      1      -9.5610      2.00000
      2      -7.5014      2.00000
      3      -6.8621      2.00000
      4      -6.0786      2.00000
      5      -2.8835      2.00000
      6      -1.0022      2.00000
      7       0.5519      2.00000
      8       3.3360      2.00000
      9       3.9258      2.00000
     10       4.8503      2.00000
     11       5.1526      2.00000
     12       5.3590      2.00000
     13       5.4180      2.00000
     14       6.8381      2.00000
     15       7.3375      2.00000
     16      10.6996      2.00000
     17      12.6210      0.00000
     18      14.8613      0.00000
     19      16.1266      0.00000
     20      16.8966      0.00000
     21      17.8428      0.00000
     22      18.6560      0.00000

 k-point    25 :       0.1250   -0.3750    0.3750
  band No.  band energies     occupation 
      1      -9.6213      2.00000
      2      -8.1256      2.00000
      3      -7.2132      2.00000
      4      -3.8936      2.00000
      5      -2.1059      2.00000
      6      -0.6436      2.00000
      7      -0.2253      2.00000
      8       0.3205      2.00000
      9       1.7539      2.00000
     10       3.6901      2.00000
     11       4.6647      2.00000
     12       7.6972      2.00000
     13       8.0839      2.00000
     14       8.5236      2.00000
     15       9.1075      2.00000
     16      10.6047      2.00000
     17      10.7111      2.00000
     18      14.8445      0.00000
     19      15.2501      0.00000
     20      16.0270      0.00000
     21      17.9494      0.00000
     22      18.7403      0.00000

 k-point    26 :       0.3750   -0.3750    0.3750
  band No.  band energies     occupation 
      1      -9.6057      2.00000
      2      -7.9103      2.00000
      3      -5.1007      2.00000
      4      -3.7585      2.00000
      5      -3.7426      2.00000
      6      -2.9086      2.00000
      7      -1.7263      2.00000
      8      -0.3429      2.00000
      9       2.2510      2.00000
     10       3.8070      2.00000
     11       3.9123      2.00000
     12       7.9765      2.00000
     13      10.1050      2.00000
     14      10.6611      2.00000
     15      10.8563      1.99982
     16      11.2165      0.17682
     17      12.8641      0.00000
     18      14.9394      0.00000
     19      15.9404      0.00000
     20      16.4561      0.00000
     21      17.5130      0.00000
     22      18.1202      0.00000

 k-point    27 :      -0.3750   -0.3750    0.3750
  band No.  band energies     occupation 
      1      -8.4379      2.00000
      2      -8.1302      2.00000
      3      -6.4619      2.00000
      4      -5.9970      2.00000
      5      -4.1055      2.00000
      6      -1.5560      2.00000
      7      -0.6507      2.00000
      8       1.9988      2.00000
      9       3.3211      2.00000
     10       3.3906      2.00000
     11       4.2931      2.00000
     12       8.1785      2.00000
     13       8.2592      2.00000
     14       9.0314      2.00000
     15       9.7949      2.00000
     16      10.1805      2.00000
     17      11.8120      0.00000
     18      14.9666      0.00000
     19      15.7118      0.00000
     20      16.0617      0.00000
     21      16.8878      0.00000
     22      19.6898      0.00000

 k-point    28 :      -0.1250   -0.3750    0.3750
  band No.  band energies     occupation 
      1      -8.3937      2.00000
      2      -8.1721      2.00000
      3      -7.8344      2.00000
      4      -6.4089      2.00000
      5      -2.9674      2.00000
      6       0.3237      2.00000
      7       2.7997      2.00000
      8       2.8424      2.00000
      9       3.2807      2.00000
     10       3.7562      2.00000
     11       4.6635      2.00000
     12       5.0992      2.00000
     13       5.7791      2.00000
     14       6.3279      2.00000
     15       8.9954      2.00000
     16       9.2501      2.00000
     17      13.6173      0.00000
     18      13.6861      0.00000
     19      14.2525      0.00000
     20      15.3696      0.00000
     21      17.4933      0.00000
     22      20.0235      0.00000

 k-point    29 :       0.1250   -0.1250    0.3750
  band No.  band energies     occupation 
      1     -10.8172      2.00000
      2      -7.7266      2.00000
      3      -6.4858      2.00000
      4      -3.2822      2.00000
      5      -0.2134      2.00000
      6       0.0850      2.00000
      7       0.3994      2.00000
      8       0.7731      2.00000
      9       0.8519      2.00000
     10       1.8706      2.00000
     11       3.5989      2.00000
     12       5.4488      2.00000
     13       7.8143      2.00000
     14       9.2594      2.00000
     15       9.9870      2.00000
     16      11.0832      1.40692
     17      11.1859      0.35857
     18      11.9865      0.00000
     19      12.2931      0.00000
     20      16.2224      0.00000
     21      18.5672      0.00000
     22      20.8792      0.00000

 k-point    30 :       0.3750   -0.1250    0.3750
  band No.  band energies     occupation 
      1     -10.4434      2.00000
      2      -7.7777      2.00000
      3      -5.3057      2.00000
      4      -4.2862      2.00000
      5      -2.0130      2.00000
      6      -0.9243      2.00000
      7      -0.3818      2.00000
      8       0.3334      2.00000
      9       0.4542      2.00000
     10       2.7817      2.00000
     11       3.4373      2.00000
     12       7.5221      2.00000
     13       8.4746      2.00000
     14      10.4591      2.00000
     15      10.5942      2.00000
     16      10.7322      2.00000
     17      12.3395      0.00000
     18      13.6561      0.00000
     19      14.9105      0.00000
     20      15.8781      0.00000
     21      17.1310      0.00000
     22      18.8632      0.00000

 k-point    31 :      -0.3750   -0.1250    0.3750
  band No.  band energies     occupation 
      1      -8.8378      2.00000
      2      -8.8332      2.00000
      3      -7.6509      2.00000
      4      -4.3050      2.00000
      5      -1.5518      2.00000
      6      -1.1933      2.00000
      7       0.9236      2.00000
      8       2.0166      2.00000
      9       2.0703      2.00000
     10       2.8525      2.00000
     11       4.6220      2.00000
     12       5.3359      2.00000
     13       7.7406      2.00000
     14       8.5874      2.00000
     15       8.8475      2.00000
     16      10.1966      2.00000
     17      12.6286      0.00000
     18      12.6839      0.00000
     19      15.7745      0.00000
     20      16.0892      0.00000
     21      17.0132      0.00000
     22      19.8441      0.00000

 k-point    32 :      -0.1250   -0.1250    0.3750
  band No.  band energies     occupation 
      1      -9.8793      2.00000
      2      -8.8991      2.00000
      3      -6.2548      2.00000
      4      -5.5578      2.00000
      5      -0.3664      2.00000
      6       1.0838      2.00000
      7       1.8962      2.00000
      8       2.2015      2.00000
      9       2.8907      2.00000
     10       3.5337      2.00000
     11       4.3770      2.00000
     12       4.7910      2.00000
     13       5.3058      2.00000
     14       6.4211      2.00000
     15       6.9510      2.00000
     16      10.7763      2.00000
     17      11.4239      0.00002
     18      12.9447      0.00000
     19      13.5665      0.00000
     20      13.8958      0.00000
     21      18.9255      0.00000
     22      21.9566      0.00000


--------------------------------------------------------------------------------------------------------


 soft charge-density along one line, spin component           1
         0         1         2         3         4         5         6         7         8         9
 total charge-density along one line
 
 pseudopotential strength for first ion, spin component:           1
  9.413  12.499  -0.000   0.000   0.000   0.001  -0.004  -0.000
 12.499  16.596  -0.000   0.000   0.000   0.001  -0.005  -0.000
 -0.000  -0.000  -3.626   0.002  -0.003   7.092  -0.005   0.004
  0.000   0.000   0.002  -3.630   0.002  -0.005   7.098  -0.005
  0.000   0.000  -0.003   0.002  -3.622   0.004  -0.005   7.087
  0.001   0.001   7.092  -0.005   0.004 -15.963   0.013  -0.004
 -0.004  -0.005  -0.005   7.098  -0.005   0.013 -15.971   0.010
 -0.000  -0.000   0.004  -0.005   7.087  -0.004   0.010 -15.958
 total augmentation occupancy for first ion, spin component:           1
  8.631  -4.001  -0.069   0.670  -0.119  -0.015   0.110  -0.020
 -4.001   1.985   0.039  -0.389   0.065   0.009  -0.060   0.011
 -0.069   0.039   1.680   0.137   0.225   0.142  -0.005   0.036
  0.670  -0.389   0.137   1.917   0.024  -0.005   0.174  -0.012
 -0.119   0.065   0.225   0.024   1.379   0.036  -0.012   0.097
 -0.015   0.009   0.142  -0.005   0.036   0.015  -0.001   0.005
  0.110  -0.060  -0.005   0.174  -0.012  -0.001   0.019  -0.002
 -0.020   0.011   0.036  -0.012   0.097   0.005  -0.002   0.009


------------------------ aborting loop because EDIFF is reached ----------------------------------------


    CHARGE:  cpu time    0.0447: real time    0.0447
    FORLOC:  cpu time    0.0019: real time    0.0019
    FORNL :  cpu time    0.1046: real time    0.1046
    STRESS:  cpu time    0.2430: real time    0.2430
    FORCOR:  cpu time    0.0215: real time    0.0215
    FORHAR:  cpu time    0.0052: real time    0.0052
    MIXING:  cpu time    0.0006: real time    0.0006
    OFIELD:  cpu time    0.0000: real time    0.0000

  FORCE on cell =-STRESS in cart. coord.  units (eV):
  Direction    XX          YY          ZZ          XY          YZ          ZX
  --------------------------------------------------------------------------------------
  Alpha Z   123.33301   123.33301   123.33301
  Ewald    -712.33694  -404.13931  -269.42019   235.87732    33.44833   -43.23395
  Hartree    -9.89484    57.53876    73.85164    51.25903    15.74759    -5.51816
  E(xc)    -124.79493  -123.76956  -123.58213     0.73905    -0.20368    -0.33667
  Local     220.03424  -124.93917  -253.24249  -263.82370   -46.62481    42.90378
  n-local   -28.88659   -30.22384   -31.64088     0.05012    -8.71894    -4.71449
  augment    -3.15892    -3.29247    -3.48989    -0.10042     0.01470     0.04705
  Kinetic   563.32694   535.05506   515.04943   -27.04021    60.56428    38.90443
  Fock        0.00000     0.00000     0.00000     0.00000     0.00000     0.00000
  -------------------------------------------------------------------------------------
  Total      27.62197    29.56248    30.85849    -3.03880    54.22746    28.05199
  in kB    1038.18415  1111.11896  1159.83025  -114.21480  2038.16325  1054.34648
  external pressure =     1103.04 kB  Pullay stress =        0.00 kB


 VOLUME and BASIS-vectors are now :
 -----------------------------------------------------------------------------
  energy-cutoff  :      600.00
  volume of cell :       42.63
      direct lattice vectors                 reciprocal lattice vectors
     0.521135183 -3.453614079  0.873214790     0.043531180 -0.298864593 -0.062812260
     3.045984138  0.793530834 -1.664690718     0.241616742 -0.004144049 -0.160586987
     2.034762972 -0.348947487  3.070478285     0.118615097  0.082747507  0.256481517

  length of vectors
     3.600213348  3.560745110  3.699981297     0.308480775  0.290144798  0.294447719


 FORCES acting on ions
    electron-ion (+dipol)            ewald-force                    non-local-force                 convergence-correction
 -----------------------------------------------------------------------------------------------
   -.949E+01 -.110E+02 0.533E+02   0.944E+01 0.112E+02 -.549E+02   0.556E-01 -.180E+00 0.152E+01   0.828E-04 0.183E-03 -.254E-03
   0.949E+01 0.110E+02 -.533E+02   -.944E+01 -.112E+02 0.549E+02   -.556E-01 0.180E+00 -.152E+01   -.828E-04 -.183E-03 0.254E-03
   -.949E+01 -.110E+02 0.533E+02   0.944E+01 0.112E+02 -.549E+02   0.556E-01 -.180E+00 0.152E+01   0.828E-04 0.183E-03 -.254E-03
   0.949E+01 0.110E+02 -.533E+02   -.944E+01 -.112E+02 0.549E+02   -.556E-01 0.180E+00 -.152E+01   -.828E-04 -.183E-03 0.254E-03
   -.949E+01 -.110E+02 0.533E+02   0.944E+01 0.112E+02 -.549E+02   0.556E-01 -.180E+00 0.152E+01   0.828E-04 0.183E-03 -.254E-03
   0.949E+01 0.110E+02 -.533E+02   -.944E+01 -.112E+02 0.549E+02   -.556E-01 0.180E+00 -.152E+01   -.828E-04 -.183E-03 0.254E-03
   -.949E+01 -.110E+02 0.533E+02   0.944E+01 0.112E+02 -.549E+02   0.556E-01 -.180E+00 0.152E+01   0.828E-04 0.183E-03 -.254E-03
   0.949E+01 0.110E+02 -.533E+02   -.944E+01 -.112E+02 0.549E+02   -.556E-01 0.180E+00 -.152E+01   -.828E-04 -.183E-03 0.254E-03
 -----------------------------------------------------------------------------------------------
   0.438E-11 -.940E-12 0.666E-12   -.355E-14 0.000E+00 -.142E-13   -.139E-16 -.555E-16 0.222E-15   -.101E-12 0.434E-13 -.311E-13
 
 
 POSITION                                       TOTAL-FORCE (eV/Angst)
 -----------------------------------------------------------------------------------
      2.38543     -1.09542      1.47305        -0.000382     -0.000285     -0.000505
      2.45027     -0.75804      2.73693         0.000382      0.000285      0.000505
      2.89104     -0.52418     -0.89454        -0.000382     -0.000285     -0.000505
      2.95588     -0.18680      0.36935         0.000382      0.000285      0.000505
      1.62862     -2.64776      0.37441        -0.000382     -0.000285     -0.000505
      1.69346     -2.31037      1.63830         0.000382      0.000285      0.000505
      4.16899     -2.42546      1.07731        -0.000382     -0.000285     -0.000505
      4.23383     -2.08808      2.34120         0.000382      0.000285      0.000505
 -----------------------------------------------------------------------------------
    total drift:                                0.000000     -0.000000      0.000000


--------------------------------------------------------------------------------------------------------



  FREE ENERGIE OF THE ION-ELECTRON SYSTEM (eV)
  ---------------------------------------------------
  free  energy   TOTEN  =       -54.64720767 eV

  energy  without entropy=      -54.63667715  energy(sigma->0) =      -54.64194241
 
 d Force = 0.5356707E-05[ 0.416E-06, 0.103E-04]  d Energy = 0.5128888E-05 0.228E-06
 d Force = 0.5458061E-01[ 0.546E-01, 0.546E-01]  d Ewald  = 0.5458061E-01-0.633E-09


--------------------------------------------------------------------------------------------------------


    POTLOK:  cpu time    0.0221: real time    0.0221


--------------------------------------------------------------------------------------------------------




--------------------------------------------------------------------------------------------------------


  
 reached required accuracy - stopping structural energy minimisation
     LOOP+:  cpu time    2.4534: real time    2.4535
    4ORBIT:  cpu time    0.0000: real time    0.0000

 total amount of memory used by VASP MPI-rank0    51173. kBytes
=======================================================================

   base      :      30000. kBytes
   nonl-proj :       3129. kBytes
   fftplans  :       3594. kBytes
   grid      :       5967. kBytes
   one-center:         24. kBytes
   wavefun   :       8459. kBytes
 
  
  
 General timing and accounting informations for this job:
 ========================================================
  
                  Total CPU time used (sec):      215.856
                            User time (sec):      212.838
                          System time (sec):        3.018
                         Elapsed time (sec):      216.360
  
                   Maximum memory used (kb):      138064.
                   Average memory used (kb):          N/A
  
                          Minor page faults:       472749
                          Major page faults:           11
                 Voluntary context switches:          641
