<?xml version="1.0" encoding="ISO-8859-1"?>
<modeling>
 <generator>
  <i name="program" type="string">vasp </i>
  <i name="version" type="string">6.2.1  </i>
  <i name="subversion" type="string">16May21 (build Oct 21 2023 21:03:18) complex                          parallel </i>
  <i name="platform" type="string">LinuxIFC </i>
  <i name="date" type="string">2024 05 29 </i>
  <i name="time" type="string">18:29:00 </i>
 </generator>
 <incar>
  <i type="int" name="ISTART">     0</i>
  <i type="string" name="PREC">accurate</i>
  <i type="int" name="IBRION">     2</i>
  <i name="EDIFF">      0.00000100</i>
  <i name="EDIFFG">      0.00001000</i>
  <i type="int" name="NSW">   300</i>
  <i type="int" name="ISIF">     2</i>
  <i type="int" name="ISYM">     2</i>
  <i name="ENCUT">    600.00000000</i>
  <i type="logical" name="LREAL"> F  </i>
  <i type="logical" name="LPLANE"> F  </i>
  <i type="int" name="ISMEAR">     0</i>
  <i name="SIGMA">      0.10000000</i>
  <i type="logical" name="LWAVE"> F  </i>
  <i type="logical" name="LCHARG"> F  </i>
 </incar>
 <primitive_cell>
  <structure name="primitive_cell" >
   <crystal>
    <varray name="basis" >
     <v>       0.75681389       1.55233330       1.09863175 </v>
     <v>       1.26242448       2.12357246      -1.26895275 </v>
     <v>      -1.78355966       1.33004162       0.39573796 </v>
    </varray>
    <i name="volume">     10.65689905 </i>
    <varray name="rec_basis" >
     <v>       0.23723019       0.16549501       0.51296303 </v>
     <v>       0.07947047       0.21197304      -0.35425624 </v>
     <v>      -0.40376302       0.22026114      -0.03308227 </v>
    </varray>
   </crystal>
   <varray name="positions" >
    <v>       0.25000000       0.37500000       0.12500000 </v>
    <v>       0.75000000       0.12500000       0.37500000 </v>
   </varray>
  </structure>
  <varray name="primitive_index" >
   <v type="int" >        1 </v>
   <v type="int" >        2 </v>
  </varray>
 </primitive_cell>
 <kpoints>
  <generation param="Monkhorst-Pack">
   <v type="int" name="divisions">       4        4        4 </v>
   <v name="usershift">      0.00000000       0.00000000       0.00000000 </v>
   <v name="genvec1">      0.25000000      -0.00000000      -0.00000000 </v>
   <v name="genvec2">     -0.00000000       0.25000000      -0.00000000 </v>
   <v name="genvec3">      0.00000000      -0.00000000       0.25000000 </v>
   <v name="shift">      0.50000000       0.50000000       0.50000000 </v>
  </generation>
  <varray name="kpointlist" >
   <v>       0.12500000       0.12500000       0.12500000 </v>
   <v>       0.37500000       0.12500000       0.12500000 </v>
   <v>      -0.37500000       0.12500000       0.12500000 </v>
   <v>      -0.12500000       0.12500000       0.12500000 </v>
   <v>       0.12500000       0.37500000       0.12500000 </v>
   <v>       0.37500000       0.37500000       0.12500000 </v>
   <v>      -0.37500000       0.37500000       0.12500000 </v>
   <v>      -0.12500000       0.37500000       0.12500000 </v>
   <v>       0.12500000      -0.37500000       0.12500000 </v>
   <v>       0.37500000      -0.37500000       0.12500000 </v>
   <v>      -0.37500000      -0.37500000       0.12500000 </v>
   <v>      -0.12500000      -0.37500000       0.12500000 </v>
   <v>       0.12500000      -0.12500000       0.12500000 </v>
   <v>       0.37500000      -0.12500000       0.12500000 </v>
   <v>      -0.37500000      -0.12500000       0.12500000 </v>
   <v>      -0.12500000      -0.12500000       0.12500000 </v>
   <v>       0.12500000       0.12500000       0.37500000 </v>
   <v>       0.37500000       0.12500000       0.37500000 </v>
   <v>      -0.37500000       0.12500000       0.37500000 </v>
   <v>      -0.12500000       0.12500000       0.37500000 </v>
   <v>       0.12500000       0.37500000       0.37500000 </v>
   <v>       0.37500000       0.37500000       0.37500000 </v>
   <v>      -0.37500000       0.37500000       0.37500000 </v>
   <v>      -0.12500000       0.37500000       0.37500000 </v>
   <v>       0.12500000      -0.37500000       0.37500000 </v>
   <v>       0.37500000      -0.37500000       0.37500000 </v>
   <v>      -0.37500000      -0.37500000       0.37500000 </v>
   <v>      -0.12500000      -0.37500000       0.37500000 </v>
   <v>       0.12500000      -0.12500000       0.37500000 </v>
   <v>       0.37500000      -0.12500000       0.37500000 </v>
   <v>      -0.37500000      -0.12500000       0.37500000 </v>
   <v>      -0.12500000      -0.12500000       0.37500000 </v>
  </varray>
  <varray name="weights" >
   <v>       0.03125000 </v>
   <v>       0.03125000 </v>
   <v>       0.03125000 </v>
   <v>       0.03125000 </v>
   <v>       0.03125000 </v>
   <v>       0.03125000 </v>
   <v>       0.03125000 </v>
   <v>       0.03125000 </v>
   <v>       0.03125000 </v>
   <v>       0.03125000 </v>
   <v>       0.03125000 </v>
   <v>       0.03125000 </v>
   <v>       0.03125000 </v>
   <v>       0.03125000 </v>
   <v>       0.03125000 </v>
   <v>       0.03125000 </v>
   <v>       0.03125000 </v>
   <v>       0.03125000 </v>
   <v>       0.03125000 </v>
   <v>       0.03125000 </v>
   <v>       0.03125000 </v>
   <v>       0.03125000 </v>
   <v>       0.03125000 </v>
   <v>       0.03125000 </v>
   <v>       0.03125000 </v>
   <v>       0.03125000 </v>
   <v>       0.03125000 </v>
   <v>       0.03125000 </v>
   <v>       0.03125000 </v>
   <v>       0.03125000 </v>
   <v>       0.03125000 </v>
   <v>       0.03125000 </v>
  </varray>
 </kpoints>
 <parameters>
  <separator name="general" >
   <i type="string" name="SYSTEM">unknown system</i>
   <i type="logical" name="LCOMPAT"> F  </i>
  </separator>
  <separator name="electronic" >
   <i type="string" name="PREC">accura</i>
   <i name="ENMAX">    600.00000000</i>
   <i name="ENAUG">    644.87300000</i>
   <i name="EDIFF">      0.00000100</i>
   <i type="int" name="IALGO">    38</i>
   <i type="int" name="IWAVPR">    11</i>
   <i type="int" name="NBANDS">    22</i>
   <i type="int" name="NBANDSLOW">    -1</i>
   <i type="int" name="NBANDSHIGH">    -1</i>
   <i name="NELECT">     32.00000000</i>
   <i type="int" name="TURBO">     0</i>
   <i type="int" name="IRESTART">     0</i>
   <i type="int" name="NREBOOT">     0</i>
   <i type="int" name="NMIN">     0</i>
   <i name="EREF">      0.00000000</i>
   <separator name="electronic smearing" >
    <i type="int" name="ISMEAR">     0</i>
    <i name="SIGMA">      0.10000000</i>
    <i name="KSPACING">      0.50000000</i>
    <i type="logical" name="KGAMMA"> T  </i>
    <i type="logical" name="KBLOWUP"> T  </i>
   </separator>
   <separator name="electronic projectors" >
    <i type="logical" name="LREAL"> F  </i>
    <v name="ROPT">      0.00000000</v>
    <i type="int" name="LMAXPAW">  -100</i>
    <i type="int" name="LMAXMIX">     2</i>
    <i type="logical" name="NLSPLINE"> F  </i>
   </separator>
   <separator name="electronic startup" >
    <i type="int" name="ISTART">     0</i>
    <i type="int" name="ICHARG">     2</i>
    <i type="int" name="INIWAV">     1</i>
   </separator>
   <separator name="electronic spin" >
    <i type="int" name="ISPIN">     1</i>
    <i type="logical" name="LNONCOLLINEAR"> F  </i>
    <v name="MAGMOM">      1.00000000      1.00000000      1.00000000      1.00000000      1.00000000      1.00000000      1.00000000      1.00000000</v>
    <i name="NUPDOWN">     -1.00000000</i>
    <i type="logical" name="LSORBIT"> F  </i>
    <v name="SAXIS">      0.00000000      0.00000000      1.00000000</v>
    <i type="logical" name="LSPIRAL"> F  </i>
    <v name="QSPIRAL">      0.00000000      0.00000000      0.00000000</v>
    <i type="logical" name="LZEROZ"> F  </i>
   </separator>
   <separator name="electronic exchange-correlation" >
    <i type="logical" name="LASPH"> F  </i>
    <i type="logical" name="LMETAGGA"> F  </i>
   </separator>
   <separator name="electronic convergence" >
    <i type="int" name="NELM">    60</i>
    <i type="int" name="NELMDL">    -5</i>
    <i type="int" name="NELMIN">     2</i>
    <i name="ENINI">    600.00000000</i>
    <separator name="electronic convergence detail" >
     <i type="logical" name="LDIAG"> T  </i>
     <i type="logical" name="LSUBROT"> F  </i>
     <i name="WEIMIN">      0.00100000</i>
     <i name="EBREAK">      0.00000001</i>
     <i name="DEPER">      0.30000000</i>
     <i type="int" name="NRMM">     4</i>
     <i name="TIME">      0.40000000</i>
    </separator>
   </separator>
   <separator name="electronic mixer" >
    <i name="AMIX">      0.40000000</i>
    <i name="BMIX">      1.00000000</i>
    <i name="AMIN">      0.10000000</i>
    <i name="AMIX_MAG">      1.60000000</i>
    <i name="BMIX_MAG">      1.00000000</i>
    <separator name="electronic mixer details" >
     <i type="int" name="IMIX">     4</i>
     <i type="logical" name="MIXFIRST"> F  </i>
     <i type="int" name="MAXMIX">   -45</i>
     <i name="WC">    100.00000000</i>
     <i type="int" name="INIMIX">     1</i>
     <i type="int" name="MIXPRE">     1</i>
     <i type="int" name="MREMOVE">     5</i>
    </separator>
   </separator>
   <separator name="electronic dipolcorrection" >
    <i type="logical" name="LDIPOL"> F  </i>
    <i type="logical" name="LMONO"> F  </i>
    <i type="int" name="IDIPOL">     0</i>
    <i name="EPSILON">      1.00000000</i>
    <v name="DIPOL">   -100.00000000   -100.00000000   -100.00000000</v>
    <i name="EFIELD">      0.00000000</i>
   </separator>
  </separator>
  <separator name="grids" >
   <i type="int" name="NGX">    30</i>
   <i type="int" name="NGY">    28</i>
   <i type="int" name="NGZ">    30</i>
   <i type="int" name="NGXF">    60</i>
   <i type="int" name="NGYF">    56</i>
   <i type="int" name="NGZF">    60</i>
   <i type="logical" name="ADDGRID"> F  </i>
  </separator>
  <separator name="ionic" >
   <i type="int" name="NSW">   300</i>
   <i type="int" name="IBRION">     2</i>
   <i type="int" name="MDALGO">     0</i>
   <i type="int" name="ISIF">     2</i>
   <i name="PSTRESS">      0.00000000</i>
   <i name="EDIFFG">      0.00001000</i>
   <i type="int" name="NFREE">     1</i>
   <i name="POTIM">      0.50000000</i>
   <i name="SMASS">     -3.00000000</i>
   <i name="SCALEE">      1.00000000</i>
  </separator>
  <separator name="ionic md" >
   <i name="TEBEG">      0.00010000</i>
   <i name="TEEND">      0.00010000</i>
   <i type="int" name="NBLOCK">     1</i>
   <i type="int" name="KBLOCK">   300</i>
   <i type="int" name="NPACO">   256</i>
   <i name="APACO">     16.00000000</i>
  </separator>
  <separator name="symmetry" >
   <i type="int" name="ISYM">     2</i>
   <i name="SYMPREC">      0.00001000</i>
  </separator>
  <separator name="dos" >
   <i type="int" name="LORBIT">     0</i>
   <v name="RWIGS">     -1.00000000</v>
   <i type="int" name="NEDOS">   301</i>
   <i name="EMIN">     10.00000000</i>
   <i name="EMAX">    -10.00000000</i>
   <i name="EFERMI">      0.00000000</i>
  </separator>
  <separator name="writing" >
   <i type="int" name="NWRITE">     2</i>
   <i type="logical" name="LWAVE"> F  </i>
   <i type="logical" name="LDOWNSAMPLE"> F  </i>
   <i type="logical" name="LCHARG"> F  </i>
   <i type="logical" name="LPARD"> F  </i>
   <i type="logical" name="LVTOT"> F  </i>
   <i type="logical" name="LVHAR"> F  </i>
   <i type="logical" name="LELF"> F  </i>
   <i type="logical" name="LOPTICS"> F  </i>
   <v name="STM">      0.00000000      0.00000000      0.00000000      0.00000000      0.00000000      0.00000000      0.00000000</v>
  </separator>
  <separator name="performance" >
   <i type="int" name="NPAR">     2</i>
   <i type="int" name="NSIM">     4</i>
   <i type="int" name="NBLK">    -1</i>
   <i type="logical" name="LPLANE"> F  </i>
   <i type="logical" name="LSCALAPACK"> T  </i>
   <i type="logical" name="LSCAAWARE"> F  </i>
   <i type="logical" name="LSCALU"> F  </i>
   <i type="logical" name="LASYNC"> F  </i>
   <i type="logical" name="LORBITALREAL"> F  </i>
  </separator>
  <separator name="miscellaneous" >
   <i type="int" name="IDIOT">     3</i>
   <i type="int" name="PHON_NSTRUCT">    -1</i>
   <i type="logical" name="LMUSIC"> F  </i>
   <v name="POMASS">     12.01100000</v>
   <v name="DARWINR">      0.00000000</v>
   <v name="DARWINV">      1.00000000</v>
   <i type="logical" name="LCORR"> T  </i>
  </separator>
  <i type="logical" name="GGA_COMPAT"> T  </i>
  <i type="logical" name="LBERRY"> F  </i>
  <i type="int" name="ICORELEVEL">     0</i>
  <i type="logical" name="LDAU"> F  </i>
  <i type="int" name="I_CONSTRAINED_M">     0</i>
  <separator name="electronic exchange-correlation" >
   <i type="string" name="GGA">--</i>
   <i type="int" name="VOSKOWN">     0</i>
   <i type="logical" name="LHFCALC"> F  </i>
   <i type="string" name="PRECFOCK"></i>
   <i type="logical" name="LSYMGRAD"> F  </i>
   <i type="logical" name="LHFONE"> F  </i>
   <i type="logical" name="LRHFCALC"> F  </i>
   <i type="logical" name="LTHOMAS"> F  </i>
   <i type="logical" name="LMODELHF"> F  </i>
   <i type="logical" name="LFOCKACE"> F  </i>
   <i name="ENCUT4O">     -1.00000000</i>
   <i type="int" name="EXXOEP">     0</i>
   <i type="int" name="FOURORBIT">     0</i>
   <i name="AEXX">      0.00000000</i>
   <i name="HFALPHA">      0.00000000</i>
   <i name="MCALPHA">      0.00000000</i>
   <i name="ALDAX">      1.00000000</i>
   <i name="AGGAX">      1.00000000</i>
   <i name="ALDAC">      1.00000000</i>
   <i name="AGGAC">      1.00000000</i>
   <i type="int" name="NKREDX">     1</i>
   <i type="int" name="NKREDY">     1</i>
   <i type="int" name="NKREDZ">     1</i>
   <i type="logical" name="SHIFTRED"> F  </i>
   <i type="logical" name="ODDONLY"> F  </i>
   <i type="logical" name="EVENONLY"> F  </i>
   <i type="int" name="LMAXFOCK">     0</i>
   <i type="int" name="NMAXFOCKAE">     0</i>
   <i type="logical" name="LFOCKAEDFT"> F  </i>
   <i name="HFSCREEN">      0.00000000</i>
   <i name="HFSCREENC">      0.00000000</i>
   <i type="int" name="NBANDSGWLOW">     0</i>
  </separator>
  <separator name="vdW DFT" >
   <i type="logical" name="LUSE_VDW"> F  </i>
   <i name="Zab_VDW">     -0.84910000</i>
   <i name="PARAM1">      0.12340000</i>
   <i name="PARAM2">      1.00000000</i>
   <i name="PARAM3">      0.00000000</i>
  </separator>
  <separator name="model GW" >
   <i type="int" name="MODEL_GW">     0</i>
   <i name="MODEL_EPS0">      3.19706972</i>
   <i name="MODEL_ALPHA">      1.00000000</i>
  </separator>
  <separator name="linear response parameters" >
   <i type="logical" name="LEPSILON"> F  </i>
   <i type="logical" name="LRPA"> F  </i>
   <i type="logical" name="LNABLA"> F  </i>
   <i type="logical" name="LVEL"> F  </i>
   <i type="int" name="KINTER">     0</i>
   <i name="CSHIFT">      0.10000000</i>
   <i name="OMEGAMAX">     -1.00000000</i>
   <i name="DEG_THRESHOLD">      0.00200000</i>
   <i name="RTIME">     -0.10000000</i>
   <i name="WPLASMAI">      0.00000000</i>
   <v name="DFIELD">      0.00000000      0.00000000      0.00000000</v>
   <v name="WPLASMA">      0.00000000      0.00000000      0.00000000      0.00000000      0.00000000      0.00000000      0.00000000      0.00000000      0.00000000</v>
  </separator>
  <separator name="orbital magnetization" >
   <i type="logical" name="NUCIND"> F  </i>
   <v name="MAGPOS">      0.00000000      0.00000000      0.00000000</v>
   <i type="logical" name="LNICSALL"> T  </i>
   <i type="logical" name="ORBITALMAG"> F  </i>
   <i type="logical" name="LMAGBLOCH"> F  </i>
   <i type="logical" name="LCHIMAG"> F  </i>
   <i type="logical" name="LGAUGE"> T  </i>
   <i type="int" name="MAGATOM">     0</i>
   <v name="MAGDIPOL">      0.00000000      0.00000000      0.00000000</v>
   <v name="AVECCONST">      0.00000000      0.00000000      0.00000000</v>
  </separator>
  <separator name="response functions" >
   <i type="logical" name="LFINITE_TEMPERATURE"> F  </i>
   <i type="logical" name="LADDER"> F  </i>
   <i type="logical" name="LRPAFORCE"> F  </i>
   <i type="logical" name="LFXC"> F  </i>
   <i type="logical" name="LHARTREE"> T  </i>
   <i type="int" name="IBSE">     0</i>
   <v type="int" name="KPOINT">    -1     0     0     0</v>
   <i type="logical" name="LTCTC"> F  </i>
   <i type="logical" name="LTCTE"> F  </i>
   <i type="logical" name="LTETE"> F  </i>
   <i type="logical" name="LTRIPLET"> F  </i>
   <i type="logical" name="LFXCEPS"> F  </i>
   <i type="logical" name="LFXHEG"> F  </i>
   <i type="int" name="NATURALO">     2</i>
   <i type="logical" name="LHOLEGF"> F  </i>
   <i type="logical" name="L2ORDER"> F  </i>
   <i type="logical" name="LDMP1"> F  </i>
   <i type="logical" name="LMP2LT"> F  </i>
   <i type="logical" name="LSMP2LT"> F  </i>
   <i type="logical" name="LGWLF"> F  </i>
   <i name="ENCUTGW">     -2.00000000</i>
   <i name="ENCUTGWSOFT">     -2.00000000</i>
   <i name="ENCUTLF">     -1.00000000</i>
   <i type="logical" name="LESF_SPLINES"> F  </i>
   <i type="int" name="LMAXMP2">    -1</i>
   <i name="SCISSOR">      0.00000000</i>
   <i type="int" name="NOMEGA">     0</i>
   <i type="int" name="NOMEGAR">     0</i>
   <i type="int" name="NBANDSGW">    -1</i>
   <i type="int" name="NBANDSO">    -1</i>
   <i type="int" name="NBANDSV">    -1</i>
   <i type="int" name="NELM">     1</i>
   <i type="int" name="NELMHF">     1</i>
   <i type="int" name="DIM">     3</i>
   <i type="int" name="IESPILON">     4</i>
   <i type="int" name="ANTIRES">     0</i>
   <i name="OMEGAMAX">    -30.00000000</i>
   <i name="OMEGAMIN">    -30.00000000</i>
   <i name="OMEGATL">   -200.00000000</i>
   <i type="int" name="OMEGAGRID">     0</i>
   <i name="CSHIFT">     -0.10000000</i>
   <i type="logical" name="LSELFENERGY"> F  </i>
   <i type="logical" name="LSPECTRAL"> F  </i>
   <i type="logical" name="LSPECTRALGW"> F  </i>
   <i type="logical" name="LSINGLES"> F  </i>
   <i type="logical" name="LFERMIGW"> F  </i>
   <i type="logical" name="ODDONLYGW"> F  </i>
   <i type="logical" name="EVENONLYGW"> F  </i>
   <i type="int" name="NKREDLFX">     1</i>
   <i type="int" name="NKREDLFY">     1</i>
   <i type="int" name="NKREDLFZ">     1</i>
   <i type="int" name="MAXMEM">  2800</i>
   <i type="int" name="TELESCOPE">     0</i>
   <i type="int" name="NTAUPAR">    -1</i>
   <i type="int" name="NOMEGAPAR">    -1</i>
   <i name="DAMP_NEWTON">      0.80000001</i>
   <i name="LAMBDA">      1.00000000</i>
  </separator>
  <separator name="External order field" >
   <i name="OFIELD_KAPPA">      0.00000000</i>
   <v name="OFIELD_K">      0.00000000      0.00000000      0.00000000</v>
   <i name="OFIELD_Q6_NEAR">      0.00000000</i>
   <i name="OFIELD_Q6_FAR">      0.00000000</i>
   <i name="OFIELD_A">      0.00000000</i>
  </separator>
 </parameters>
 <atominfo>
  <atoms>       8 </atoms>
  <types>       1 </types>
  <array name="atoms" >
   <dimension dim="1">ion</dimension>
   <field type="string">element</field>
   <field type="int">atomtype</field>
   <set>
    <rc><c>C </c><c>   1</c></rc>
    <rc><c>C </c><c>   1</c></rc>
    <rc><c>C </c><c>   1</c></rc>
    <rc><c>C </c><c>   1</c></rc>
    <rc><c>C </c><c>   1</c></rc>
    <rc><c>C </c><c>   1</c></rc>
    <rc><c>C </c><c>   1</c></rc>
    <rc><c>C </c><c>   1</c></rc>
   </set>
  </array>
  <array name="atomtypes" >
   <dimension dim="1">type</dimension>
   <field type="int">atomspertype</field>
   <field type="string">element</field>
   <field>mass</field>
   <field>valence</field>
   <field type="string">pseudopotential</field>
   <set>
    <rc><c>   8</c><c>C </c><c>     12.01100000</c><c>      4.00000000</c><c>  PAW_PBE C 08Apr2002                   </c></rc>
   </set>
  </array>
 </atominfo>
 <structure name="initialpos" >
  <crystal>
   <varray name="basis" >
    <v>       0.52113518      -3.45361408       0.87321479 </v>
    <v>       3.04598414       0.79353083      -1.66469072 </v>
    <v>       2.03476297      -0.34894749       3.07047828 </v>
   </varray>
   <i name="volume">     42.62759621 </i>
   <varray name="rec_basis" >
    <v>       0.04353118      -0.29886459      -0.06281226 </v>
    <v>       0.24161674      -0.00414405      -0.16058699 </v>
    <v>       0.11861510       0.08274751       0.25648152 </v>
   </varray>
  </crystal>
  <varray name="positions" >
   <v>       0.12500000       0.12500000       0.62500000 </v>
   <v>       0.37500000       0.37500000       0.87500000 </v>
   <v>       0.12500000       0.62500000       0.12500000 </v>
   <v>       0.37500000       0.87500000       0.37500000 </v>
   <v>       0.62500000       0.12500000       0.12500000 </v>
   <v>       0.87500000       0.37500000       0.37500000 </v>
   <v>       0.62500000       0.62500000       0.62500000 </v>
   <v>       0.87500000       0.87500000       0.87500000 </v>
  </varray>
  <varray name="selective"  type="logical" >
   <v type="logical" >  T  T  T </v>
   <v type="logical" >  T  T  T </v>
   <v type="logical" >  T  T  T </v>
   <v type="logical" >  T  T  T </v>
   <v type="logical" >  T  T  T </v>
   <v type="logical" >  T  T  T </v>
   <v type="logical" >  T  T  T </v>
   <v type="logical" >  T  T  T </v>
  </varray>
  <nose>
   <v>      -3.00000000       0.00000000       0.00010000       0.00010000 </v>
  </nose>
 </structure>
 <calculation>
  <scstep>
   <time name="dav">    0.42    0.42</time>
   <time name="total">    0.44    0.44</time>
   <energy>
    <i name="alphaZ">    123.33301175 </i>
    <i name="ewald">  -1362.79782236 </i>
    <i name="hartreedc">    -86.99369271 </i>
    <i name="XCdc">    112.13848669 </i>
    <i name="pawpsdc">    868.17637104 </i>
    <i name="pawaedc">   -872.73161751 </i>
    <i name="eentropy">     -0.00510069 </i>
    <i name="bandstr">    160.57005209 </i>
    <i name="atom">   1177.20230207 </i>
    <i name="e_fr_energy">    118.89199036 </i>
    <i name="e_wo_entrp">    118.89709106 </i>
    <i name="e_0_energy">    118.89454071 </i>
   </energy>
  </scstep>
  <scstep>
   <time name="dav">    0.63    0.63</time>
   <time name="total">    0.63    0.63</time>
   <energy>
    <i name="e_fr_energy">    -49.86919632 </i>
    <i name="e_wo_entrp">    -49.86751443 </i>
    <i name="e_0_energy">    -49.86835538 </i>
   </energy>
  </scstep>
  <scstep>
   <time name="dav">    0.75    0.75</time>
   <time name="total">    0.75    0.75</time>
   <energy>
    <i name="e_fr_energy">    -57.33549519 </i>
    <i name="e_wo_entrp">    -57.33138803 </i>
    <i name="e_0_energy">    -57.33344161 </i>
   </energy>
  </scstep>
  <scstep>
   <time name="dav">    0.68    0.68</time>
   <time name="total">    0.68    0.68</time>
   <energy>
    <i name="e_fr_energy">    -57.46852335 </i>
    <i name="e_wo_entrp">    -57.46439352 </i>
    <i name="e_0_energy">    -57.46645844 </i>
   </energy>
  </scstep>
  <scstep>
   <time name="dav">    0.54    0.54</time>
   <time name="total">    0.59    0.59</time>
   <energy>
    <i name="e_fr_energy">    -57.47172604 </i>
    <i name="e_wo_entrp">    -57.46759580 </i>
    <i name="e_0_energy">    -57.46966092 </i>
   </energy>
  </scstep>
  <scstep>
   <time name="dav">    0.48    0.48</time>
   <time name="total">    0.54    0.54</time>
   <energy>
    <i name="e_fr_energy">    -52.28036352 </i>
    <i name="e_wo_entrp">    -52.27853652 </i>
    <i name="e_0_energy">    -52.27945002 </i>
   </energy>
  </scstep>
  <scstep>
   <time name="dav">    0.53    0.53</time>
   <time name="total">    0.59    0.59</time>
   <energy>
    <i name="e_fr_energy">    -50.92705931 </i>
    <i name="e_wo_entrp">    -50.92637183 </i>
    <i name="e_0_energy">    -50.92671557 </i>
   </energy>
  </scstep>
  <scstep>
   <time name="dav">    0.60    0.60</time>
   <time name="total">    0.68    0.68</time>
   <energy>
    <i name="e_fr_energy">    -50.95250647 </i>
    <i name="e_wo_entrp">    -50.95121259 </i>
    <i name="e_0_energy">    -50.95185953 </i>
   </energy>
  </scstep>
  <scstep>
   <time name="dav">    0.70    0.70</time>
   <time name="total">    0.79    0.80</time>
   <energy>
    <i name="e_fr_energy">    -50.95136884 </i>
    <i name="e_wo_entrp">    -50.95030928 </i>
    <i name="e_0_energy">    -50.95083906 </i>
   </energy>
  </scstep>
  <scstep>
   <time name="dav">    0.67    0.67</time>
   <time name="total">    0.75    0.75</time>
   <energy>
    <i name="e_fr_energy">    -50.95149700 </i>
    <i name="e_wo_entrp">    -50.95044146 </i>
    <i name="e_0_energy">    -50.95096923 </i>
   </energy>
  </scstep>
  <scstep>
   <time name="dav">    0.50    0.50</time>
   <time name="total">    0.57    0.57</time>
   <energy>
    <i name="e_fr_energy">    -50.95150278 </i>
    <i name="e_wo_entrp">    -50.95043229 </i>
    <i name="e_0_energy">    -50.95096753 </i>
   </energy>
  </scstep>
  <scstep>
   <time name="dav">    0.49    0.49</time>
   <time name="total">    0.52    0.52</time>
   <energy>
    <i name="alphaZ">    123.33301175 </i>
    <i name="ewald">  -1362.79782236 </i>
    <i name="hartreedc">   -137.17550072 </i>
    <i name="XCdc">    116.07179488 </i>
    <i name="pawpsdc">   3917.27049491 </i>
    <i name="pawaedc">  -3923.14965245 </i>
    <i name="eentropy">     -0.00107598 </i>
    <i name="bandstr">     38.29494602 </i>
    <i name="atom">   1177.20230207 </i>
    <i name="e_fr_energy">    -50.95150189 </i>
    <i name="e_wo_entrp">    -50.95042591 </i>
    <i name="e_0_energy">    -50.95096390 </i>
   </energy>
  </scstep>
  <structure>
   <crystal>
    <varray name="basis" >
     <v>       0.52113518      -3.45361408       0.87321479 </v>
     <v>       3.04598414       0.79353083      -1.66469072 </v>
     <v>       2.03476297      -0.34894749       3.07047828 </v>
    </varray>
    <i name="volume">     42.62759621 </i>
    <varray name="rec_basis" >
     <v>       0.04353118      -0.29886459      -0.06281226 </v>
     <v>       0.24161674      -0.00414405      -0.16058699 </v>
     <v>       0.11861510       0.08274751       0.25648152 </v>
    </varray>
   </crystal>
   <varray name="positions" >
    <v>       0.12500000       0.12500000       0.62500000 </v>
    <v>       0.37500000       0.37500000       0.87500000 </v>
    <v>       0.12500000       0.62500000       0.12500000 </v>
    <v>       0.37500000       0.87500000       0.37500000 </v>
    <v>       0.62500000       0.12500000       0.12500000 </v>
    <v>       0.87500000       0.37500000       0.37500000 </v>
    <v>       0.62500000       0.62500000       0.62500000 </v>
    <v>       0.87500000       0.87500000       0.87500000 </v>
   </varray>
  </structure>
  <varray name="forces" >
   <v>       4.61809036      -7.22216902      -9.64322142 </v>
   <v>      -4.61809036       7.22216902       9.64322142 </v>
   <v>       4.61809036      -7.22216902      -9.64322142 </v>
   <v>      -4.61809036       7.22216902       9.64322142 </v>
   <v>       4.61809036      -7.22216902      -9.64322142 </v>
   <v>      -4.61809036       7.22216902       9.64322142 </v>
   <v>       4.61809036      -7.22216902      -9.64322142 </v>
   <v>      -4.61809036       7.22216902       9.64322142 </v>
  </varray>
  <varray name="stress" >
   <v>     285.74625690    -439.58931252    -936.08794100 </v>
   <v>    -439.58931259    1805.99395336    2889.97338731 </v>
   <v>    -936.08794098    2889.97338738    2394.96998626 </v>
  </varray>
  <energy>
   <i name="e_fr_energy">    -50.95150189 </i>
   <i name="e_wo_entrp">    -50.95042591 </i>
   <i name="e_0_energy">    -50.95096390 </i>
  </energy>
  <time name="totalsc">    7.99    8.00</time>
 </calculation>
 <calculation>
  <scstep>
   <time name="dav">    0.62    0.62</time>
   <time name="total">    0.70    0.70</time>
   <energy>
    <i name="alphaZ">    123.33301175 </i>
    <i name="ewald">  -1507.02435992 </i>
    <i name="hartreedc">    -36.12422131 </i>
    <i name="XCdc">    109.66242853 </i>
    <i name="pawpsdc">   3916.42648514 </i>
    <i name="pawaedc">  -3922.30548990 </i>
    <i name="eentropy">     -0.00685881 </i>
    <i name="bandstr">    122.53090176 </i>
    <i name="atom">   1177.20230207 </i>
    <i name="e_fr_energy">    -16.30580069 </i>
    <i name="e_wo_entrp">    -16.29894188 </i>
    <i name="e_0_energy">    -16.30237128 </i>
   </energy>
  </scstep>
  <scstep>
   <time name="dav">    0.69    0.69</time>
   <time name="total">    0.78    0.78</time>
   <energy>
    <i name="e_fr_energy">    -45.06967454 </i>
    <i name="e_wo_entrp">    -45.05778494 </i>
    <i name="e_0_energy">    -45.06372974 </i>
   </energy>
  </scstep>
  <scstep>
   <time name="dav">    0.74    0.74</time>
   <time name="total">    0.82    0.82</time>
   <energy>
    <i name="e_fr_energy">    -44.65561223 </i>
    <i name="e_wo_entrp">    -44.64146558 </i>
    <i name="e_0_energy">    -44.64853890 </i>
   </energy>
  </scstep>
  <scstep>
   <time name="dav">    0.53    0.53</time>
   <time name="total">    0.60    0.60</time>
   <energy>
    <i name="e_fr_energy">    -43.93345036 </i>
    <i name="e_wo_entrp">    -43.91737675 </i>
    <i name="e_0_energy">    -43.92541355 </i>
   </energy>
  </scstep>
  <scstep>
   <time name="dav">    0.52    0.52</time>
   <time name="total">    0.59    0.59</time>
   <energy>
    <i name="e_fr_energy">    -43.95686134 </i>
    <i name="e_wo_entrp">    -43.94087723 </i>
    <i name="e_0_energy">    -43.94886929 </i>
   </energy>
  </scstep>
  <scstep>
   <time name="dav">    0.52    0.52</time>
   <time name="total">    0.58    0.58</time>
   <energy>
    <i name="e_fr_energy">    -43.96578054 </i>
    <i name="e_wo_entrp">    -43.94987416 </i>
    <i name="e_0_energy">    -43.95782735 </i>
   </energy>
  </scstep>
  <scstep>
   <time name="dav">    0.64    0.64</time>
   <time name="total">    0.72    0.72</time>
   <energy>
    <i name="e_fr_energy">    -43.96597919 </i>
    <i name="e_wo_entrp">    -43.95003826 </i>
    <i name="e_0_energy">    -43.95800873 </i>
   </energy>
  </scstep>
  <scstep>
   <time name="dav">    0.71    0.71</time>
   <time name="total">    0.81    0.81</time>
   <energy>
    <i name="e_fr_energy">    -43.96595371 </i>
    <i name="e_wo_entrp">    -43.94997287 </i>
    <i name="e_0_energy">    -43.95796329 </i>
   </energy>
  </scstep>
  <scstep>
   <time name="dav">    0.71    0.71</time>
   <time name="total">    0.75    0.75</time>
   <energy>
    <i name="alphaZ">    123.33301175 </i>
    <i name="ewald">  -1507.02435992 </i>
    <i name="hartreedc">    -36.89151928 </i>
    <i name="XCdc">    109.66714130 </i>
    <i name="pawpsdc">   1901.43121014 </i>
    <i name="pawaedc">  -1906.27930898 </i>
    <i name="eentropy">     -0.01598151 </i>
    <i name="bandstr">     94.61155131 </i>
    <i name="atom">   1177.20230207 </i>
    <i name="e_fr_energy">    -43.96595313 </i>
    <i name="e_wo_entrp">    -43.94997162 </i>
    <i name="e_0_energy">    -43.95796238 </i>
   </energy>
  </scstep>
  <structure>
   <crystal>
    <varray name="basis" >
     <v>       0.52113518      -3.45361408       0.87321479 </v>
     <v>       3.04598414       0.79353083      -1.66469072 </v>
     <v>       2.03476297      -0.34894749       3.07047828 </v>
    </varray>
    <i name="volume">     42.62759621 </i>
    <varray name="rec_basis" >
     <v>       0.04353118      -0.29886459      -0.06281226 </v>
     <v>       0.24161674      -0.00414405      -0.16058699 </v>
     <v>       0.11861510       0.08274751       0.25648152 </v>
    </varray>
   </crystal>
   <varray name="positions" >
    <v>       0.26804883       0.25498080       0.50327658 </v>
    <v>       0.23195117       0.24501920       0.99672342 </v>
    <v>       0.26804883       0.75498080       0.00327658 </v>
    <v>       0.23195117       0.74501920       0.49672342 </v>
    <v>       0.76804883       0.25498080       0.00327658 </v>
    <v>       0.73195117       0.24501920       0.49672342 </v>
    <v>       0.76804883       0.75498080       0.50327658 </v>
    <v>       0.73195117       0.74501920       0.99672342 </v>
   </varray>
  </structure>
  <varray name="forces" >
   <v>       0.81890553      -1.44888496       1.42953109 </v>
   <v>      -0.81890553       1.44888496      -1.42953109 </v>
   <v>       0.81890553      -1.44888496       1.42953109 </v>
   <v>      -0.81890553       1.44888496      -1.42953109 </v>
   <v>       0.81890553      -1.44888496       1.42953109 </v>
   <v>      -0.81890553       1.44888496      -1.42953109 </v>
   <v>       0.81890553      -1.44888496       1.42953109 </v>
   <v>      -0.81890553       1.44888496      -1.42953109 </v>
  </varray>
  <varray name="stress" >
   <v>      -4.66348331    -755.28737983    -179.11846847 </v>
   <v>    -755.28738001     686.64885810     945.41273767 </v>
   <v>    -179.11846863     945.41273758     497.08237097 </v>
  </varray>
  <energy>
   <i name="e_fr_energy">    -43.96595313 </i>
   <i name="e_wo_entrp">    -43.94997162 </i>
   <i name="e_0_energy">    -43.95796238 </i>
  </energy>
  <time name="totalsc">    6.85    6.85</time>
 </calculation>
 <calculation>
  <scstep>
   <time name="dav">    0.44    0.44</time>
   <time name="total">    0.50    0.50</time>
   <energy>
    <i name="alphaZ">    123.33301175 </i>
    <i name="ewald">  -1506.99527479 </i>
    <i name="hartreedc">    -36.90346489 </i>
    <i name="XCdc">    109.66819034 </i>
    <i name="pawpsdc">   1901.32322232 </i>
    <i name="pawaedc">  -1906.17184059 </i>
    <i name="eentropy">     -0.01622395 </i>
    <i name="bandstr">     94.59362932 </i>
    <i name="atom">   1177.20230207 </i>
    <i name="e_fr_energy">    -43.96644840 </i>
    <i name="e_wo_entrp">    -43.95022446 </i>
    <i name="e_0_energy">    -43.95833643 </i>
   </energy>
  </scstep>
  <scstep>
   <time name="dav">    0.57    0.57</time>
   <time name="total">    0.64    0.64</time>
   <energy>
    <i name="e_fr_energy">    -43.96652528 </i>
    <i name="e_wo_entrp">    -43.95030205 </i>
    <i name="e_0_energy">    -43.95841367 </i>
   </energy>
  </scstep>
  <scstep>
   <time name="dav">    0.64    0.64</time>
   <time name="total">    0.72    0.72</time>
   <energy>
    <i name="e_fr_energy">    -43.96652194 </i>
    <i name="e_wo_entrp">    -43.95030068 </i>
    <i name="e_0_energy">    -43.95841131 </i>
   </energy>
  </scstep>
  <scstep>
   <time name="dav">    0.55    0.55</time>
   <time name="total">    0.58    0.58</time>
   <energy>
    <i name="alphaZ">    123.33301175 </i>
    <i name="ewald">  -1506.99527479 </i>
    <i name="hartreedc">    -36.91576395 </i>
    <i name="XCdc">    109.66953337 </i>
    <i name="pawpsdc">   1901.66043225 </i>
    <i name="pawaedc">  -1906.50974386 </i>
    <i name="eentropy">     -0.01622074 </i>
    <i name="bandstr">     94.60520205 </i>
    <i name="atom">   1177.20230207 </i>
    <i name="e_fr_energy">    -43.96652186 </i>
    <i name="e_wo_entrp">    -43.95030112 </i>
    <i name="e_0_energy">    -43.95841149 </i>
   </energy>
  </scstep>
  <structure>
   <crystal>
    <varray name="basis" >
     <v>       0.52113518      -3.45361408       0.87321479 </v>
     <v>       3.04598414       0.79353083      -1.66469072 </v>
     <v>       2.03476297      -0.34894749       3.07047828 </v>
    </varray>
    <i name="volume">     42.62759621 </i>
    <varray name="rec_basis" >
     <v>       0.04353118      -0.29886459      -0.06281226 </v>
     <v>       0.24161674      -0.00414405      -0.16058699 </v>
     <v>       0.11861510       0.08274751       0.25648152 </v>
    </varray>
   </crystal>
   <varray name="positions" >
    <v>       0.26844570       0.25534141       0.50293888 </v>
    <v>       0.23155430       0.24465859       0.99706112 </v>
    <v>       0.26844570       0.75534141       0.00293888 </v>
    <v>       0.23155430       0.74465859       0.49706112 </v>
    <v>       0.76844570       0.25534141       0.00293888 </v>
    <v>       0.73155430       0.24465859       0.49706112 </v>
    <v>       0.76844570       0.75534141       0.50293888 </v>
    <v>       0.73155430       0.74465859       0.99706112 </v>
   </varray>
  </structure>
  <varray name="forces" >
   <v>       0.81244549      -1.45016578       1.41263084 </v>
   <v>      -0.81244549       1.45016578      -1.41263084 </v>
   <v>       0.81244549      -1.45016578       1.41263084 </v>
   <v>      -0.81244549       1.45016578      -1.41263084 </v>
   <v>       0.81244549      -1.45016578       1.41263084 </v>
   <v>      -0.81244549       1.45016578      -1.41263084 </v>
   <v>       0.81244549      -1.45016578       1.41263084 </v>
   <v>      -0.81244549       1.45016578      -1.41263084 </v>
  </varray>
  <varray name="stress" >
   <v>      -3.39696172    -757.02119556    -180.56302697 </v>
   <v>    -757.02119569     686.26094992     945.68280552 </v>
   <v>    -180.56302714     945.68280552     496.38697813 </v>
  </varray>
  <energy>
   <i name="e_fr_energy">    -43.96652186 </i>
   <i name="e_wo_entrp">    -43.95030112 </i>
   <i name="e_0_energy">    -43.95841149 </i>
  </energy>
  <time name="totalsc">    3.09    3.10</time>
 </calculation>
 <calculation>
  <scstep>
   <time name="dav">    0.57    0.57</time>
   <time name="total">    0.64    0.64</time>
   <energy>
    <i name="alphaZ">    123.33301175 </i>
    <i name="ewald">  -1480.08984027 </i>
    <i name="hartreedc">    -48.60028221 </i>
    <i name="XCdc">    110.33999638 </i>
    <i name="pawpsdc">   1901.70743694 </i>
    <i name="pawaedc">  -1906.55673338 </i>
    <i name="eentropy">     -0.00679733 </i>
    <i name="bandstr">     77.04042557 </i>
    <i name="atom">   1177.20230207 </i>
    <i name="e_fr_energy">    -45.63048049 </i>
    <i name="e_wo_entrp">    -45.62368315 </i>
    <i name="e_0_energy">    -45.62708182 </i>
   </energy>
  </scstep>
  <scstep>
   <time name="dav">    0.57    0.57</time>
   <time name="total">    0.63    0.63</time>
   <energy>
    <i name="e_fr_energy">    -46.15314219 </i>
    <i name="e_wo_entrp">    -46.14611095 </i>
    <i name="e_0_energy">    -46.14962657 </i>
   </energy>
  </scstep>
  <scstep>
   <time name="dav">    0.50    0.50</time>
   <time name="total">    0.56    0.56</time>
   <energy>
    <i name="e_fr_energy">    -46.09563310 </i>
    <i name="e_wo_entrp">    -46.08796038 </i>
    <i name="e_0_energy">    -46.09179674 </i>
   </energy>
  </scstep>
  <scstep>
   <time name="dav">    0.54    0.54</time>
   <time name="total">    0.62    0.62</time>
   <energy>
    <i name="e_fr_energy">    -46.08476507 </i>
    <i name="e_wo_entrp">    -46.07681873 </i>
    <i name="e_0_energy">    -46.08079190 </i>
   </energy>
  </scstep>
  <scstep>
   <time name="dav">    0.66    0.66</time>
   <time name="total">    0.75    0.76</time>
   <energy>
    <i name="e_fr_energy">    -46.08487972 </i>
    <i name="e_wo_entrp">    -46.07697125 </i>
    <i name="e_0_energy">    -46.08092548 </i>
   </energy>
  </scstep>
  <scstep>
   <time name="dav">    0.74    0.74</time>
   <time name="total">    0.83    0.83</time>
   <energy>
    <i name="e_fr_energy">    -46.08487500 </i>
    <i name="e_wo_entrp">    -46.07695493 </i>
    <i name="e_0_energy">    -46.08091496 </i>
   </energy>
  </scstep>
  <scstep>
   <time name="dav">    0.64    0.64</time>
   <time name="total">    0.72    0.72</time>
   <energy>
    <i name="e_fr_energy">    -46.08487454 </i>
    <i name="e_wo_entrp">    -46.07694430 </i>
    <i name="e_0_energy">    -46.08090942 </i>
   </energy>
  </scstep>
  <scstep>
   <time name="dav">    0.37    0.37</time>
   <time name="total">    0.39    0.39</time>
   <energy>
    <i name="alphaZ">    123.33301175 </i>
    <i name="ewald">  -1480.08984027 </i>
    <i name="hartreedc">    -53.80597866 </i>
    <i name="XCdc">    110.78495116 </i>
    <i name="pawpsdc">   2217.32155093 </i>
    <i name="pawaedc">  -2222.34870201 </i>
    <i name="eentropy">     -0.00792894 </i>
    <i name="bandstr">     81.52575941 </i>
    <i name="atom">   1177.20230207 </i>
    <i name="e_fr_energy">    -46.08487457 </i>
    <i name="e_wo_entrp">    -46.07694563 </i>
    <i name="e_0_energy">    -46.08091010 </i>
   </energy>
  </scstep>
  <structure>
   <crystal>
    <varray name="basis" >
     <v>       0.52113518      -3.45361408       0.87321479 </v>
     <v>       3.04598414       0.79353083      -1.66469072 </v>
     <v>       2.03476297      -0.34894749       3.07047828 </v>
    </varray>
    <i name="volume">     42.62759621 </i>
    <varray name="rec_basis" >
     <v>       0.04353118      -0.29886459      -0.06281226 </v>
     <v>       0.24161674      -0.00414405      -0.16058699 </v>
     <v>       0.11861510       0.08274751       0.25648152 </v>
    </varray>
   </crystal>
   <varray name="positions" >
    <v>       0.29036272       0.25740323       0.51624686 </v>
    <v>       0.20963728       0.24259677       0.98375314 </v>
    <v>       0.29036272       0.75740323       0.01624686 </v>
    <v>       0.20963728       0.74259677       0.48375314 </v>
    <v>       0.79036272       0.25740323       0.01624686 </v>
    <v>       0.70963728       0.24259677       0.48375314 </v>
    <v>       0.79036272       0.75740323       0.51624686 </v>
    <v>       0.70963728       0.74259677       0.98375314 </v>
   </varray>
  </structure>
  <varray name="forces" >
   <v>       0.67799788      -0.79658343       1.99595504 </v>
   <v>      -0.67799788       0.79658343      -1.99595504 </v>
   <v>       0.67799788      -0.79658343       1.99595504 </v>
   <v>      -0.67799788       0.79658343      -1.99595504 </v>
   <v>       0.67799788      -0.79658343       1.99595504 </v>
   <v>      -0.67799788       0.79658343      -1.99595504 </v>
   <v>       0.67799788      -0.79658343       1.99595504 </v>
   <v>      -0.67799788       0.79658343      -1.99595504 </v>
  </varray>
  <varray name="stress" >
   <v>    -191.67505298    -893.35049280      96.07990666 </v>
   <v>    -893.35049289    1119.47523960     927.72853085 </v>
   <v>      96.07990658     927.72853075     648.11418465 </v>
  </varray>
  <energy>
   <i name="e_fr_energy">    -46.08487457 </i>
   <i name="e_wo_entrp">    -46.07694563 </i>
   <i name="e_0_energy">    -46.08091010 </i>
  </energy>
  <time name="totalsc">    5.60    5.61</time>
 </calculation>
 <calculation>
  <scstep>
   <time name="dav">    0.44    0.44</time>
   <time name="total">    0.50    0.50</time>
   <energy>
    <i name="alphaZ">    123.33301175 </i>
    <i name="ewald">  -1241.18294343 </i>
    <i name="hartreedc">   -130.65621714 </i>
    <i name="XCdc">    115.13734889 </i>
    <i name="pawpsdc">   2217.15172166 </i>
    <i name="pawaedc">  -2222.17883878 </i>
    <i name="eentropy">     -0.00567222 </i>
    <i name="bandstr">    -67.90068844 </i>
    <i name="atom">   1177.20230207 </i>
    <i name="e_fr_energy">    -29.09997563 </i>
    <i name="e_wo_entrp">    -29.09430341 </i>
    <i name="e_0_energy">    -29.09713952 </i>
   </energy>
  </scstep>
  <scstep>
   <time name="dav">    0.62    0.62</time>
   <time name="total">    0.70    0.70</time>
   <energy>
    <i name="e_fr_energy">    -30.59565630 </i>
    <i name="e_wo_entrp">    -30.59204678 </i>
    <i name="e_0_energy">    -30.59385154 </i>
   </energy>
  </scstep>
  <scstep>
   <time name="dav">    0.63    0.63</time>
   <time name="total">    0.72    0.72</time>
   <energy>
    <i name="e_fr_energy">    -27.71280335 </i>
    <i name="e_wo_entrp">    -27.70707686 </i>
    <i name="e_0_energy">    -27.70994011 </i>
   </energy>
  </scstep>
  <scstep>
   <time name="dav">    0.68    0.68</time>
   <time name="total">    0.79    0.79</time>
   <energy>
    <i name="e_fr_energy">    -26.94107405 </i>
    <i name="e_wo_entrp">    -26.93607398 </i>
    <i name="e_0_energy">    -26.93857401 </i>
   </energy>
  </scstep>
  <scstep>
   <time name="dav">    0.50    0.50</time>
   <time name="total">    0.57    0.57</time>
   <energy>
    <i name="e_fr_energy">    -26.95788003 </i>
    <i name="e_wo_entrp">    -26.95286403 </i>
    <i name="e_0_energy">    -26.95537203 </i>
   </energy>
  </scstep>
  <scstep>
   <time name="dav">    0.48    0.48</time>
   <time name="total">    0.55    0.55</time>
   <energy>
    <i name="e_fr_energy">    -26.95779028 </i>
    <i name="e_wo_entrp">    -26.95277640 </i>
    <i name="e_0_energy">    -26.95528334 </i>
   </energy>
  </scstep>
  <scstep>
   <time name="dav">    0.45    0.45</time>
   <time name="total">    0.52    0.52</time>
   <energy>
    <i name="e_fr_energy">    -26.95759176 </i>
    <i name="e_wo_entrp">    -26.95260092 </i>
    <i name="e_0_energy">    -26.95509634 </i>
   </energy>
  </scstep>
  <scstep>
   <time name="dav">    0.50    0.50</time>
   <time name="total">    0.58    0.58</time>
   <energy>
    <i name="e_fr_energy">    -26.95760296 </i>
    <i name="e_wo_entrp">    -26.95261596 </i>
    <i name="e_0_energy">    -26.95510946 </i>
   </energy>
  </scstep>
  <scstep>
   <time name="dav">    0.41    0.41</time>
   <time name="total">    0.50    0.50</time>
   <energy>
    <i name="e_fr_energy">    -26.95760461 </i>
    <i name="e_wo_entrp">    -26.95261662 </i>
    <i name="e_0_energy">    -26.95511062 </i>
   </energy>
  </scstep>
  <scstep>
   <time name="dav">    0.41    0.41</time>
   <time name="total">    0.45    0.45</time>
   <energy>
    <i name="alphaZ">    123.33301175 </i>
    <i name="ewald">  -1241.18294343 </i>
    <i name="hartreedc">   -201.83687354 </i>
    <i name="XCdc">    120.17458487 </i>
    <i name="pawpsdc">   5456.79082642 </i>
    <i name="pawaedc">  -5463.83870225 </i>
    <i name="eentropy">     -0.00498827 </i>
    <i name="bandstr">      2.40517804 </i>
    <i name="atom">   1177.20230207 </i>
    <i name="e_fr_energy">    -26.95760433 </i>
    <i name="e_wo_entrp">    -26.95261606 </i>
    <i name="e_0_energy">    -26.95511019 </i>
   </energy>
  </scstep>
  <structure>
   <crystal>
    <varray name="basis" >
     <v>       0.52113518      -3.45361408       0.87321479 </v>
     <v>       3.04598414       0.79353083      -1.66469072 </v>
     <v>       2.03476297      -0.34894749       3.07047828 </v>
    </varray>
    <i name="volume">     42.62759621 </i>
    <varray name="rec_basis" >
     <v>       0.04353118      -0.29886459      -0.06281226 </v>
     <v>       0.24161674      -0.00414405      -0.16058699 </v>
     <v>       0.11861510       0.08274751       0.25648152 </v>
    </varray>
   </crystal>
   <varray name="positions" >
    <v>       0.35611378       0.26358868       0.55617079 </v>
    <v>       0.14388622       0.23641132       0.94382921 </v>
    <v>       0.35611378       0.76358868       0.05617079 </v>
    <v>       0.14388622       0.73641132       0.44382921 </v>
    <v>       0.85611378       0.26358868       0.05617079 </v>
    <v>       0.64388622       0.23641132       0.44382921 </v>
    <v>       0.85611378       0.76358868       0.55617079 </v>
    <v>       0.64388622       0.73641132       0.94382921 </v>
   </varray>
  </structure>
  <varray name="forces" >
   <v>       9.52760360      45.48257437       6.53322939 </v>
   <v>      -9.52760360     -45.48257437      -6.53322939 </v>
   <v>       9.52760360      45.48257437       6.53322939 </v>
   <v>      -9.52760360     -45.48257437      -6.53322939 </v>
   <v>       9.52760360      45.48257437       6.53322939 </v>
   <v>      -9.52760360     -45.48257437      -6.53322939 </v>
   <v>       9.52760360      45.48257437       6.53322939 </v>
   <v>      -9.52760360     -45.48257437      -6.53322939 </v>
  </varray>
  <varray name="stress" >
   <v>    1121.53616148    1337.51419867     327.41795304 </v>
   <v>    1337.51419915    8732.72316978    1594.32724605 </v>
   <v>     327.41795303    1594.32724599    1366.32930664 </v>
  </varray>
  <energy>
   <i name="e_fr_energy">    -26.95760433 </i>
   <i name="e_wo_entrp">    -26.95261606 </i>
   <i name="e_0_energy">    -26.95511019 </i>
  </energy>
  <time name="totalsc">    6.50    6.50</time>
 </calculation>
 <calculation>
  <scstep>
   <time name="dav">    0.54    0.54</time>
   <time name="total">    0.61    0.61</time>
   <energy>
    <i name="alphaZ">    123.33301175 </i>
    <i name="ewald">  -1471.30993676 </i>
    <i name="hartreedc">    -97.21389613 </i>
    <i name="XCdc">    114.08669254 </i>
    <i name="pawpsdc">   5456.99091852 </i>
    <i name="pawaedc">  -5464.03878585 </i>
    <i name="eentropy">     -0.01484787 </i>
    <i name="bandstr">    111.28811352 </i>
    <i name="atom">   1177.20230207 </i>
    <i name="e_fr_energy">    -49.67642821 </i>
    <i name="e_wo_entrp">    -49.66158034 </i>
    <i name="e_0_energy">    -49.66900428 </i>
   </energy>
  </scstep>
  <scstep>
   <time name="dav">    0.54    0.54</time>
   <time name="total">    0.60    0.61</time>
   <energy>
    <i name="e_fr_energy">    -48.12700874 </i>
    <i name="e_wo_entrp">    -48.12008647 </i>
    <i name="e_0_energy">    -48.12354760 </i>
   </energy>
  </scstep>
  <scstep>
   <time name="dav">    0.49    0.49</time>
   <time name="total">    0.56    0.56</time>
   <energy>
    <i name="e_fr_energy">    -46.84282757 </i>
    <i name="e_wo_entrp">    -46.83263851 </i>
    <i name="e_0_energy">    -46.83773304 </i>
   </energy>
  </scstep>
  <scstep>
   <time name="dav">    0.53    0.53</time>
   <time name="total">    0.61    0.61</time>
   <energy>
    <i name="e_fr_energy">    -46.36668551 </i>
    <i name="e_wo_entrp">    -46.35637796 </i>
    <i name="e_0_energy">    -46.36153174 </i>
   </energy>
  </scstep>
  <scstep>
   <time name="dav">    0.65    0.65</time>
   <time name="total">    0.74    0.74</time>
   <energy>
    <i name="e_fr_energy">    -46.37439929 </i>
    <i name="e_wo_entrp">    -46.36277681 </i>
    <i name="e_0_energy">    -46.36858805 </i>
   </energy>
  </scstep>
  <scstep>
   <time name="dav">    0.70    0.70</time>
   <time name="total">    0.80    0.80</time>
   <energy>
    <i name="e_fr_energy">    -46.37427917 </i>
    <i name="e_wo_entrp">    -46.36275051 </i>
    <i name="e_0_energy">    -46.36851484 </i>
   </energy>
  </scstep>
  <scstep>
   <time name="dav">    0.63    0.63</time>
   <time name="total">    0.71    0.71</time>
   <energy>
    <i name="e_fr_energy">    -46.37423249 </i>
    <i name="e_wo_entrp">    -46.36280672 </i>
    <i name="e_0_energy">    -46.36851961 </i>
   </energy>
  </scstep>
  <scstep>
   <time name="dav">    0.49    0.49</time>
   <time name="total">    0.56    0.56</time>
   <energy>
    <i name="e_fr_energy">    -46.37423021 </i>
    <i name="e_wo_entrp">    -46.36279963 </i>
    <i name="e_0_energy">    -46.36851492 </i>
   </energy>
  </scstep>
  <scstep>
   <time name="dav">    0.31    0.31</time>
   <time name="total">    0.33    0.33</time>
   <energy>
    <i name="alphaZ">    123.33301175 </i>
    <i name="ewald">  -1471.30993676 </i>
    <i name="hartreedc">    -59.29011980 </i>
    <i name="XCdc">    111.13756049 </i>
    <i name="pawpsdc">   2322.94833592 </i>
    <i name="pawaedc">  -2328.03514453 </i>
    <i name="eentropy">     -0.01142897 </i>
    <i name="bandstr">     77.65118999 </i>
    <i name="atom">   1177.20230207 </i>
    <i name="e_fr_energy">    -46.37422984 </i>
    <i name="e_wo_entrp">    -46.36280086 </i>
    <i name="e_0_energy">    -46.36851535 </i>
   </energy>
  </scstep>
  <structure>
   <crystal>
    <varray name="basis" >
     <v>       0.52113518      -3.45361408       0.87321479 </v>
     <v>       3.04598414       0.79353083      -1.66469072 </v>
     <v>       2.03476297      -0.34894749       3.07047828 </v>
    </varray>
    <i name="volume">     42.62759621 </i>
    <varray name="rec_basis" >
     <v>       0.04353118      -0.29886459      -0.06281226 </v>
     <v>       0.24161674      -0.00414405      -0.16058699 </v>
     <v>       0.11861510       0.08274751       0.25648152 </v>
    </varray>
   </crystal>
   <varray name="positions" >
    <v>       0.29489298       0.25782941       0.51899763 </v>
    <v>       0.20510702       0.24217059       0.98100237 </v>
    <v>       0.29489298       0.75782941       0.01899763 </v>
    <v>       0.20510702       0.74217059       0.48100237 </v>
    <v>       0.79489298       0.25782941       0.01899763 </v>
    <v>       0.70510702       0.24217059       0.48100237 </v>
    <v>       0.79489298       0.75782941       0.51899763 </v>
    <v>       0.70510702       0.74217059       0.98100237 </v>
   </varray>
  </structure>
  <varray name="forces" >
   <v>       0.63446492      -0.10175382       1.90365118 </v>
   <v>      -0.63446492       0.10175382      -1.90365118 </v>
   <v>       0.63446492      -0.10175382       1.90365118 </v>
   <v>      -0.63446492       0.10175382      -1.90365118 </v>
   <v>       0.63446492      -0.10175382       1.90365118 </v>
   <v>      -0.63446492       0.10175382      -1.90365118 </v>
   <v>       0.63446492      -0.10175382       1.90365118 </v>
   <v>      -0.63446492       0.10175382      -1.90365118 </v>
  </varray>
  <varray name="stress" >
   <v>    -227.15596308    -877.96334677     145.61745161 </v>
   <v>    -877.96334663    1271.55810508     931.63283193 </v>
   <v>     145.61745186     931.63283191     714.65569198 </v>
  </varray>
  <energy>
   <i name="e_fr_energy">    -46.37422984 </i>
   <i name="e_wo_entrp">    -46.36280086 </i>
   <i name="e_0_energy">    -46.36851535 </i>
  </energy>
  <time name="totalsc">    5.97    5.97</time>
 </calculation>
 <calculation>
  <scstep>
   <time name="dav">    0.47    0.47</time>
   <time name="total">    0.55    0.56</time>
   <energy>
    <i name="alphaZ">    123.33301175 </i>
    <i name="ewald">  -1447.76863378 </i>
    <i name="hartreedc">    -69.33698712 </i>
    <i name="XCdc">    111.71495216 </i>
    <i name="pawpsdc">   2322.84287524 </i>
    <i name="pawaedc">  -2327.92974347 </i>
    <i name="eentropy">     -0.01296419 </i>
    <i name="bandstr">     63.18470604 </i>
    <i name="atom">   1177.20230207 </i>
    <i name="e_fr_energy">    -46.77048131 </i>
    <i name="e_wo_entrp">    -46.75751712 </i>
    <i name="e_0_energy">    -46.76399921 </i>
   </energy>
  </scstep>
  <scstep>
   <time name="dav">    0.74    0.74</time>
   <time name="total">    0.83    0.83</time>
   <energy>
    <i name="e_fr_energy">    -46.73948893 </i>
    <i name="e_wo_entrp">    -46.72763193 </i>
    <i name="e_0_energy">    -46.73356043 </i>
   </energy>
  </scstep>
  <scstep>
   <time name="dav">    0.63    0.63</time>
   <time name="total">    0.73    0.73</time>
   <energy>
    <i name="e_fr_energy">    -46.69896226 </i>
    <i name="e_wo_entrp">    -46.68714815 </i>
    <i name="e_0_energy">    -46.69305521 </i>
   </energy>
  </scstep>
  <scstep>
   <time name="dav">    0.58    0.58</time>
   <time name="total">    0.65    0.65</time>
   <energy>
    <i name="e_fr_energy">    -46.69889101 </i>
    <i name="e_wo_entrp">    -46.68719035 </i>
    <i name="e_0_energy">    -46.69304068 </i>
   </energy>
  </scstep>
  <scstep>
   <time name="dav">    0.51    0.51</time>
   <time name="total">    0.58    0.58</time>
   <energy>
    <i name="e_fr_energy">    -46.69885018 </i>
    <i name="e_wo_entrp">    -46.68711220 </i>
    <i name="e_0_energy">    -46.69298119 </i>
   </energy>
  </scstep>
  <scstep>
   <time name="dav">    0.47    0.47</time>
   <time name="total">    0.53    0.53</time>
   <energy>
    <i name="e_fr_energy">    -46.69884418 </i>
    <i name="e_wo_entrp">    -46.68711594 </i>
    <i name="e_0_energy">    -46.69298006 </i>
   </energy>
  </scstep>
  <scstep>
   <time name="dav">    0.48    0.48</time>
   <time name="total">    0.50    0.50</time>
   <energy>
    <i name="alphaZ">    123.33301175 </i>
    <i name="ewald">  -1447.76863378 </i>
    <i name="hartreedc">    -74.43881588 </i>
    <i name="XCdc">    112.10608675 </i>
    <i name="pawpsdc">   2624.07174935 </i>
    <i name="pawaedc">  -2629.32292903 </i>
    <i name="eentropy">     -0.01172142 </i>
    <i name="bandstr">     68.13010693 </i>
    <i name="atom">   1177.20230207 </i>
    <i name="e_fr_energy">    -46.69884326 </i>
    <i name="e_wo_entrp">    -46.68712184 </i>
    <i name="e_0_energy">    -46.69298255 </i>
   </energy>
  </scstep>
  <structure>
   <crystal>
    <varray name="basis" >
     <v>       0.52113518      -3.45361408       0.87321479 </v>
     <v>       3.04598414       0.79353083      -1.66469072 </v>
     <v>       2.03476297      -0.34894749       3.07047828 </v>
    </varray>
    <i name="volume">     42.62759621 </i>
    <varray name="rec_basis" >
     <v>       0.04353118      -0.29886459      -0.06281226 </v>
     <v>       0.24161674      -0.00414405      -0.16058699 </v>
     <v>       0.11861510       0.08274751       0.25648152 </v>
    </varray>
   </crystal>
   <varray name="positions" >
    <v>       0.30492781       0.25877342       0.52509076 </v>
    <v>       0.19507219       0.24122658       0.97490924 </v>
    <v>       0.30492781       0.75877342       0.02509076 </v>
    <v>       0.19507219       0.74122658       0.47490924 </v>
    <v>       0.80492781       0.25877342       0.02509076 </v>
    <v>       0.69507219       0.24122658       0.47490924 </v>
    <v>       0.80492781       0.75877342       0.52509076 </v>
    <v>       0.69507219       0.74122658       0.97490924 </v>
   </varray>
  </structure>
  <varray name="forces" >
   <v>       0.79631808       1.66930957       1.62749392 </v>
   <v>      -0.79631808      -1.66930957      -1.62749392 </v>
   <v>       0.79631808       1.66930957       1.62749392 </v>
   <v>      -0.79631808      -1.66930957      -1.62749392 </v>
   <v>       0.79631808       1.66930957       1.62749392 </v>
   <v>      -0.79631808      -1.66930957      -1.62749392 </v>
   <v>       0.79631808       1.66930957       1.62749392 </v>
   <v>      -0.79631808      -1.66930957      -1.62749392 </v>
  </varray>
  <varray name="stress" >
   <v>    -260.02402189    -679.35721361     201.91172853 </v>
   <v>    -679.35721329    1781.54523807     983.96586193 </v>
   <v>     201.91172890     983.96586197     861.96606063 </v>
  </varray>
  <energy>
   <i name="e_fr_energy">    -46.69884326 </i>
   <i name="e_wo_entrp">    -46.68712184 </i>
   <i name="e_0_energy">    -46.69298255 </i>
  </energy>
  <time name="totalsc">    4.94    4.95</time>
 </calculation>
 <calculation>
  <scstep>
   <time name="dav">    0.60    0.60</time>
   <time name="total">    0.70    0.70</time>
   <energy>
    <i name="alphaZ">    123.33301175 </i>
    <i name="ewald">  -1416.16386692 </i>
    <i name="hartreedc">    -88.32615035 </i>
    <i name="XCdc">    112.88118983 </i>
    <i name="pawpsdc">   2624.17365716 </i>
    <i name="pawaedc">  -2629.42483836 </i>
    <i name="eentropy">     -0.01047889 </i>
    <i name="bandstr">     48.28266554 </i>
    <i name="atom">   1177.20230207 </i>
    <i name="e_fr_energy">    -48.05250817 </i>
    <i name="e_wo_entrp">    -48.04202927 </i>
    <i name="e_0_energy">    -48.04726872 </i>
   </energy>
  </scstep>
  <scstep>
   <time name="dav">    0.72    0.72</time>
   <time name="total">    0.80    0.80</time>
   <energy>
    <i name="e_fr_energy">    -47.75733169 </i>
    <i name="e_wo_entrp">    -47.74089041 </i>
    <i name="e_0_energy">    -47.74911105 </i>
   </energy>
  </scstep>
  <scstep>
   <time name="dav">    0.46    0.46</time>
   <time name="total">    0.53    0.53</time>
   <energy>
    <i name="e_fr_energy">    -47.66700780 </i>
    <i name="e_wo_entrp">    -47.64402566 </i>
    <i name="e_0_energy">    -47.65551673 </i>
   </energy>
  </scstep>
  <scstep>
   <time name="dav">    0.46    0.46</time>
   <time name="total">    0.53    0.53</time>
   <energy>
    <i name="e_fr_energy">    -47.66644185 </i>
    <i name="e_wo_entrp">    -47.64446584 </i>
    <i name="e_0_energy">    -47.65545385 </i>
   </energy>
  </scstep>
  <scstep>
   <time name="dav">    0.47    0.47</time>
   <time name="total">    0.54    0.54</time>
   <energy>
    <i name="e_fr_energy">    -47.66612229 </i>
    <i name="e_wo_entrp">    -47.64383595 </i>
    <i name="e_0_energy">    -47.65497912 </i>
   </energy>
  </scstep>
  <scstep>
   <time name="dav">    0.56    0.56</time>
   <time name="total">    0.65    0.65</time>
   <energy>
    <i name="e_fr_energy">    -47.66613591 </i>
    <i name="e_wo_entrp">    -47.64387596 </i>
    <i name="e_0_energy">    -47.65500593 </i>
   </energy>
  </scstep>
  <scstep>
   <time name="dav">    0.68    0.68</time>
   <time name="total">    0.71    0.71</time>
   <energy>
    <i name="alphaZ">    123.33301175 </i>
    <i name="ewald">  -1416.16386692 </i>
    <i name="hartreedc">    -97.69367649 </i>
    <i name="XCdc">    113.55663405 </i>
    <i name="pawpsdc">   3079.47098072 </i>
    <i name="pawaedc">  -3084.96294850 </i>
    <i name="eentropy">     -0.02224888 </i>
    <i name="bandstr">     57.61367547 </i>
    <i name="atom">   1177.20230207 </i>
    <i name="e_fr_energy">    -47.66613673 </i>
    <i name="e_wo_entrp">    -47.64388784 </i>
    <i name="e_0_energy">    -47.65501229 </i>
   </energy>
  </scstep>
  <structure>
   <crystal>
    <varray name="basis" >
     <v>       0.52113518      -3.45361408       0.87321479 </v>
     <v>       3.04598414       0.79353083      -1.66469072 </v>
     <v>       2.03476297      -0.34894749       3.07047828 </v>
    </varray>
    <i name="volume">     42.62759621 </i>
    <varray name="rec_basis" >
     <v>       0.04353118      -0.29886459      -0.06281226 </v>
     <v>       0.24161674      -0.00414405      -0.16058699 </v>
     <v>       0.11861510       0.08274751       0.25648152 </v>
    </varray>
   </crystal>
   <varray name="positions" >
    <v>       0.30412869       0.25821630       0.54582124 </v>
    <v>       0.19587131       0.24178370       0.95417876 </v>
    <v>       0.30412869       0.75821630       0.04582124 </v>
    <v>       0.19587131       0.74178370       0.45417876 </v>
    <v>       0.80412869       0.25821630       0.04582124 </v>
    <v>       0.69587131       0.24178370       0.45417876 </v>
    <v>       0.80412869       0.75821630       0.54582124 </v>
    <v>       0.69587131       0.74178370       0.95417876 </v>
   </varray>
  </structure>
  <varray name="forces" >
   <v>       1.71469646       1.38606261       1.00833898 </v>
   <v>      -1.71469646      -1.38606261      -1.00833898 </v>
   <v>       1.71469646       1.38606261       1.00833898 </v>
   <v>      -1.71469646      -1.38606261      -1.00833898 </v>
   <v>       1.71469646       1.38606261       1.00833898 </v>
   <v>      -1.71469646      -1.38606261      -1.00833898 </v>
   <v>       1.71469646       1.38606261       1.00833898 </v>
   <v>      -1.71469646      -1.38606261      -1.00833898 </v>
  </varray>
  <varray name="stress" >
   <v>    -296.74508665    -226.52547508     573.13147922 </v>
   <v>    -226.52547531    2205.14579478    1526.13850667 </v>
   <v>     573.13147896    1526.13850628    1333.98235670 </v>
  </varray>
  <energy>
   <i name="e_fr_energy">    -47.66613673 </i>
   <i name="e_wo_entrp">    -47.64388784 </i>
   <i name="e_0_energy">    -47.65501229 </i>
  </energy>
  <time name="totalsc">    5.09    5.10</time>
 </calculation>
 <calculation>
  <scstep>
   <time name="dav">    0.56    0.56</time>
   <time name="total">    0.63    0.64</time>
   <energy>
    <i name="alphaZ">    123.33301175 </i>
    <i name="ewald">  -1232.66614061 </i>
    <i name="hartreedc">   -153.41137125 </i>
    <i name="XCdc">    116.72719496 </i>
    <i name="pawpsdc">   3079.42192476 </i>
    <i name="pawaedc">  -3084.91381341 </i>
    <i name="eentropy">     -0.00273504 </i>
    <i name="bandstr">    -52.18543787 </i>
    <i name="atom">   1177.20230207 </i>
    <i name="e_fr_energy">    -26.49506463 </i>
    <i name="e_wo_entrp">    -26.49232959 </i>
    <i name="e_0_energy">    -26.49369711 </i>
   </energy>
  </scstep>
  <scstep>
   <time name="dav">    0.51    0.51</time>
   <time name="total">    0.58    0.58</time>
   <energy>
    <i name="e_fr_energy">    -24.39486744 </i>
    <i name="e_wo_entrp">    -24.38773214 </i>
    <i name="e_0_energy">    -24.39129979 </i>
   </energy>
  </scstep>
  <scstep>
   <time name="dav">    0.46    0.46</time>
   <time name="total">    0.53    0.53</time>
   <energy>
    <i name="e_fr_energy">    -22.38606826 </i>
    <i name="e_wo_entrp">    -22.38180244 </i>
    <i name="e_0_energy">    -22.38393535 </i>
   </energy>
  </scstep>
  <scstep>
   <time name="dav">    0.49    0.49</time>
   <time name="total">    0.56    0.56</time>
   <energy>
    <i name="e_fr_energy">    -22.20696078 </i>
    <i name="e_wo_entrp">    -22.20264548 </i>
    <i name="e_0_energy">    -22.20480313 </i>
   </energy>
  </scstep>
  <scstep>
   <time name="dav">    0.61    0.61</time>
   <time name="total">    0.69    0.69</time>
   <energy>
    <i name="e_fr_energy">    -22.21133397 </i>
    <i name="e_wo_entrp">    -22.20692275 </i>
    <i name="e_0_energy">    -22.20912836 </i>
   </energy>
  </scstep>
  <scstep>
   <time name="dav">    0.66    0.66</time>
   <time name="total">    0.76    0.76</time>
   <energy>
    <i name="e_fr_energy">    -22.21140483 </i>
    <i name="e_wo_entrp">    -22.20698081 </i>
    <i name="e_0_energy">    -22.20919282 </i>
   </energy>
  </scstep>
  <scstep>
   <time name="dav">    0.71    0.71</time>
   <time name="total">    0.79    0.79</time>
   <energy>
    <i name="e_fr_energy">    -22.21141448 </i>
    <i name="e_wo_entrp">    -22.20700203 </i>
    <i name="e_0_energy">    -22.20920826 </i>
   </energy>
  </scstep>
  <scstep>
   <time name="dav">    0.43    0.43</time>
   <time name="total">    0.50    0.50</time>
   <energy>
    <i name="e_fr_energy">    -22.21141716 </i>
    <i name="e_wo_entrp">    -22.20701024 </i>
    <i name="e_0_energy">    -22.20921370 </i>
   </energy>
  </scstep>
  <scstep>
   <time name="dav">    0.31    0.31</time>
   <time name="total">    0.33    0.33</time>
   <energy>
    <i name="alphaZ">    123.33301175 </i>
    <i name="ewald">  -1232.66614061 </i>
    <i name="hartreedc">   -205.99842383 </i>
    <i name="XCdc">    120.41151350 </i>
    <i name="pawpsdc">   5392.16459013 </i>
    <i name="pawaedc">  -5399.36365833 </i>
    <i name="eentropy">     -0.00440745 </i>
    <i name="bandstr">      2.70979559 </i>
    <i name="atom">   1177.20230207 </i>
    <i name="e_fr_energy">    -22.21141719 </i>
    <i name="e_wo_entrp">    -22.20700973 </i>
    <i name="e_0_energy">    -22.20921346 </i>
   </energy>
  </scstep>
  <structure>
   <crystal>
    <varray name="basis" >
     <v>       0.52113518      -3.45361408       0.87321479 </v>
     <v>       3.04598414       0.79353083      -1.66469072 </v>
     <v>       2.03476297      -0.34894749       3.07047828 </v>
    </varray>
    <i name="volume">     42.62759621 </i>
    <varray name="rec_basis" >
     <v>       0.04353118      -0.29886459      -0.06281226 </v>
     <v>       0.24161674      -0.00414405      -0.16058699 </v>
     <v>       0.11861510       0.08274751       0.25648152 </v>
    </varray>
   </crystal>
   <varray name="positions" >
    <v>       0.30173135       0.25654494       0.60801270 </v>
    <v>       0.19826865       0.24345506       0.89198730 </v>
    <v>       0.30173135       0.75654494       0.10801270 </v>
    <v>       0.19826865       0.74345506       0.39198730 </v>
    <v>       0.80173135       0.25654494       0.10801270 </v>
    <v>       0.69826865       0.24345506       0.39198730 </v>
    <v>       0.80173135       0.75654494       0.60801270 </v>
    <v>       0.69826865       0.74345506       0.89198730 </v>
   </varray>
  </structure>
  <varray name="forces" >
   <v>     -24.88622208     -19.27096310     -44.89621588 </v>
   <v>      24.88622208      19.27096310      44.89621588 </v>
   <v>     -24.88622208     -19.27096310     -44.89621588 </v>
   <v>      24.88622208      19.27096310      44.89621588 </v>
   <v>     -24.88622208     -19.27096310     -44.89621588 </v>
   <v>      24.88622208      19.27096310      44.89621588 </v>
   <v>     -24.88622208     -19.27096310     -44.89621588 </v>
   <v>      24.88622208      19.27096310      44.89621588 </v>
  </varray>
  <varray name="stress" >
   <v>    3131.99434572     949.18633907    3691.81711665 </v>
   <v>     949.18633883    2010.59983545    3027.13590988 </v>
   <v>    3691.81711680    3027.13591049    6724.19663972 </v>
  </varray>
  <energy>
   <i name="e_fr_energy">    -22.21141719 </i>
   <i name="e_wo_entrp">    -22.20700973 </i>
   <i name="e_0_energy">    -22.20921346 </i>
  </energy>
  <time name="totalsc">    5.82    5.83</time>
 </calculation>
 <calculation>
  <scstep>
   <time name="dav">    0.47    0.47</time>
   <time name="total">    0.53    0.53</time>
   <energy>
    <i name="alphaZ">    123.33301175 </i>
    <i name="ewald">  -1412.59323852 </i>
    <i name="hartreedc">   -132.30511916 </i>
    <i name="XCdc">    116.03711197 </i>
    <i name="pawpsdc">   5392.27795302 </i>
    <i name="pawaedc">  -5399.47685975 </i>
    <i name="eentropy">     -0.01305863 </i>
    <i name="bandstr">     83.64623727 </i>
    <i name="atom">   1177.20230207 </i>
    <i name="e_fr_energy">    -51.89166000 </i>
    <i name="e_wo_entrp">    -51.87860136 </i>
    <i name="e_0_energy">    -51.88513068 </i>
   </energy>
  </scstep>
  <scstep>
   <time name="dav">    0.67    0.67</time>
   <time name="total">    0.76    0.76</time>
   <energy>
    <i name="e_fr_energy">    -49.10001717 </i>
    <i name="e_wo_entrp">    -49.08261884 </i>
    <i name="e_0_energy">    -49.09131800 </i>
   </energy>
  </scstep>
  <scstep>
   <time name="dav">    0.70    0.70</time>
   <time name="total">    0.79    0.79</time>
   <energy>
    <i name="e_fr_energy">    -48.00303330 </i>
    <i name="e_wo_entrp">    -47.98356883 </i>
    <i name="e_0_energy">    -47.99330106 </i>
   </energy>
  </scstep>
  <scstep>
   <time name="dav">    0.63    0.63</time>
   <time name="total">    0.71    0.71</time>
   <energy>
    <i name="e_fr_energy">    -47.76942332 </i>
    <i name="e_wo_entrp">    -47.75216059 </i>
    <i name="e_0_energy">    -47.76079195 </i>
   </energy>
  </scstep>
  <scstep>
   <time name="dav">    0.50    0.50</time>
   <time name="total">    0.57    0.57</time>
   <energy>
    <i name="e_fr_energy">    -47.76447850 </i>
    <i name="e_wo_entrp">    -47.74790771 </i>
    <i name="e_0_energy">    -47.75619310 </i>
   </energy>
  </scstep>
  <scstep>
   <time name="dav">    0.46    0.46</time>
   <time name="total">    0.53    0.53</time>
   <energy>
    <i name="e_fr_energy">    -47.76464253 </i>
    <i name="e_wo_entrp">    -47.74815578 </i>
    <i name="e_0_energy">    -47.75639915 </i>
   </energy>
  </scstep>
  <scstep>
   <time name="dav">    0.50    0.50</time>
   <time name="total">    0.58    0.58</time>
   <energy>
    <i name="e_fr_energy">    -47.76463630 </i>
    <i name="e_wo_entrp">    -47.74819055 </i>
    <i name="e_0_energy">    -47.75641343 </i>
   </energy>
  </scstep>
  <scstep>
   <time name="dav">    0.53    0.53</time>
   <time name="total">    0.56    0.57</time>
   <energy>
    <i name="alphaZ">    123.33301175 </i>
    <i name="ewald">  -1412.59323852 </i>
    <i name="hartreedc">   -100.58374179 </i>
    <i name="XCdc">    113.73849972 </i>
    <i name="pawpsdc">   3136.97843424 </i>
    <i name="pawaedc">  -3142.50132960 </i>
    <i name="eentropy">     -0.01644408 </i>
    <i name="bandstr">     56.67786986 </i>
    <i name="atom">   1177.20230207 </i>
    <i name="e_fr_energy">    -47.76463636 </i>
    <i name="e_wo_entrp">    -47.74819227 </i>
    <i name="e_0_energy">    -47.75641431 </i>
   </energy>
  </scstep>
  <structure>
   <crystal>
    <varray name="basis" >
     <v>       0.52113518      -3.45361408       0.87321479 </v>
     <v>       3.04598414       0.79353083      -1.66469072 </v>
     <v>       2.03476297      -0.34894749       3.07047828 </v>
    </varray>
    <i name="volume">     42.62759621 </i>
    <varray name="rec_basis" >
     <v>       0.04353118      -0.29886459      -0.06281226 </v>
     <v>       0.24161674      -0.00414405      -0.16058699 </v>
     <v>       0.11861510       0.08274751       0.25648152 </v>
    </varray>
   </crystal>
   <varray name="positions" >
    <v>       0.30405099       0.25816213       0.54783704 </v>
    <v>       0.19594901       0.24183787       0.95216296 </v>
    <v>       0.30405099       0.75816213       0.04783704 </v>
    <v>       0.19594901       0.74183787       0.45216296 </v>
    <v>       0.80405099       0.25816213       0.04783704 </v>
    <v>       0.69594901       0.24183787       0.45216296 </v>
    <v>       0.80405099       0.75816213       0.54783704 </v>
    <v>       0.69594901       0.74183787       0.95216296 </v>
   </varray>
  </structure>
  <varray name="forces" >
   <v>       1.76097636       1.18185319       0.94601453 </v>
   <v>      -1.76097636      -1.18185319      -0.94601453 </v>
   <v>       1.76097636       1.18185319       0.94601453 </v>
   <v>      -1.76097636      -1.18185319      -0.94601453 </v>
   <v>       1.76097636       1.18185319       0.94601453 </v>
   <v>      -1.76097636      -1.18185319      -0.94601453 </v>
   <v>       1.76097636       1.18185319       0.94601453 </v>
   <v>      -1.76097636      -1.18185319      -0.94601453 </v>
  </varray>
  <varray name="stress" >
   <v>    -269.48106366    -156.29428076     621.97325062 </v>
   <v>    -156.29428090    2211.16253308    1596.42149890 </v>
   <v>     621.97325076    1596.42149915    1402.87304372 </v>
  </varray>
  <energy>
   <i name="e_fr_energy">    -47.76463636 </i>
   <i name="e_wo_entrp">    -47.74819227 </i>
   <i name="e_0_energy">    -47.75641431 </i>
  </energy>
  <time name="totalsc">    5.65    5.66</time>
 </calculation>
 <calculation>
  <scstep>
   <time name="dav">    0.59    0.59</time>
   <time name="total">    0.69    0.69</time>
   <energy>
    <i name="alphaZ">    123.33301175 </i>
    <i name="ewald">  -1344.61997280 </i>
    <i name="hartreedc">   -126.89410738 </i>
    <i name="XCdc">    115.23594328 </i>
    <i name="pawpsdc">   3136.64990287 </i>
    <i name="pawaedc">  -3142.17294473 </i>
    <i name="eentropy">     -0.01104398 </i>
    <i name="bandstr">     15.44974580 </i>
    <i name="atom">   1177.20230207 </i>
    <i name="e_fr_energy">    -45.82716312 </i>
    <i name="e_wo_entrp">    -45.81611914 </i>
    <i name="e_0_energy">    -45.82164113 </i>
   </energy>
  </scstep>
  <scstep>
   <time name="dav">    0.57    0.57</time>
   <time name="total">    0.64    0.64</time>
   <energy>
    <i name="e_fr_energy">    -45.49478142 </i>
    <i name="e_wo_entrp">    -45.48237759 </i>
    <i name="e_0_energy">    -45.48857950 </i>
   </energy>
  </scstep>
  <scstep>
   <time name="dav">    0.44    0.44</time>
   <time name="total">    0.51    0.51</time>
   <energy>
    <i name="e_fr_energy">    -45.19554763 </i>
    <i name="e_wo_entrp">    -45.18149921 </i>
    <i name="e_0_energy">    -45.18852342 </i>
   </energy>
  </scstep>
  <scstep>
   <time name="dav">    0.48    0.48</time>
   <time name="total">    0.55    0.55</time>
   <energy>
    <i name="e_fr_energy">    -45.19944482 </i>
    <i name="e_wo_entrp">    -45.18527464 </i>
    <i name="e_0_energy">    -45.19235973 </i>
   </energy>
  </scstep>
  <scstep>
   <time name="dav">    0.48    0.48</time>
   <time name="total">    0.55    0.55</time>
   <energy>
    <i name="e_fr_energy">    -45.19920863 </i>
    <i name="e_wo_entrp">    -45.18479378 </i>
    <i name="e_0_energy">    -45.19200120 </i>
   </energy>
  </scstep>
  <scstep>
   <time name="dav">    0.58    0.58</time>
   <time name="total">    0.67    0.67</time>
   <energy>
    <i name="e_fr_energy">    -45.19923082 </i>
    <i name="e_wo_entrp">    -45.18480682 </i>
    <i name="e_0_energy">    -45.19201882 </i>
   </energy>
  </scstep>
  <scstep>
   <time name="dav">    0.64    0.64</time>
   <time name="total">    0.73    0.73</time>
   <energy>
    <i name="e_fr_energy">    -45.19923085 </i>
    <i name="e_wo_entrp">    -45.18481307 </i>
    <i name="e_0_energy">    -45.19202196 </i>
   </energy>
  </scstep>
  <scstep>
   <time name="dav">    0.43    0.43</time>
   <time name="total">    0.47    0.47</time>
   <energy>
    <i name="alphaZ">    123.33301175 </i>
    <i name="ewald">  -1344.61997280 </i>
    <i name="hartreedc">   -143.42804423 </i>
    <i name="XCdc">    116.41730533 </i>
    <i name="pawpsdc">   4212.31676001 </i>
    <i name="pawaedc">  -4218.32276429 </i>
    <i name="eentropy">     -0.01441665 </i>
    <i name="bandstr">     31.91658752 </i>
    <i name="atom">   1177.20230207 </i>
    <i name="e_fr_energy">    -45.19923129 </i>
    <i name="e_wo_entrp">    -45.18481464 </i>
    <i name="e_0_energy">    -45.19202296 </i>
   </energy>
  </scstep>
  <structure>
   <crystal>
    <varray name="basis" >
     <v>       0.52113518      -3.45361408       0.87321479 </v>
     <v>       3.04598414       0.79353083      -1.66469072 </v>
     <v>       2.03476297      -0.34894749       3.07047828 </v>
    </varray>
    <i name="volume">     42.62759621 </i>
    <varray name="rec_basis" >
     <v>       0.04353118      -0.29886459      -0.06281226 </v>
     <v>       0.24161674      -0.00414405      -0.16058699 </v>
     <v>       0.11861510       0.08274751       0.25648152 </v>
    </varray>
   </crystal>
   <varray name="positions" >
    <v>       0.30289117       0.25735354       0.57792487 </v>
    <v>       0.19710883       0.24264646       0.92207513 </v>
    <v>       0.30289117       0.75735354       0.07792487 </v>
    <v>       0.19710883       0.74264646       0.42207513 </v>
    <v>       0.80289117       0.25735354       0.07792487 </v>
    <v>       0.69710883       0.24264646       0.42207513 </v>
    <v>       0.80289117       0.75735354       0.57792487 </v>
    <v>       0.69710883       0.74264646       0.92207513 </v>
   </varray>
  </structure>
  <varray name="forces" >
   <v>      -4.14966647      -3.39213717     -10.00157335 </v>
   <v>       4.14966647       3.39213717      10.00157335 </v>
   <v>      -4.14966647      -3.39213717     -10.00157335 </v>
   <v>       4.14966647       3.39213717      10.00157335 </v>
   <v>      -4.14966647      -3.39213717     -10.00157335 </v>
   <v>       4.14966647       3.39213717      10.00157335 </v>
   <v>      -4.14966647      -3.39213717     -10.00157335 </v>
   <v>       4.14966647       3.39213717      10.00157335 </v>
  </varray>
  <varray name="stress" >
   <v>     899.29847713     126.25114597    1523.28315795 </v>
   <v>     126.25114612    2130.49074963    2006.82850526 </v>
   <v>    1523.28315789    2006.82850550    2865.57447600 </v>
  </varray>
  <energy>
   <i name="e_fr_energy">    -45.19923129 </i>
   <i name="e_wo_entrp">    -45.18481464 </i>
   <i name="e_0_energy">    -45.19202296 </i>
  </energy>
  <time name="totalsc">    5.33    5.33</time>
 </calculation>
 <calculation>
  <scstep>
   <time name="dav">    0.44    0.44</time>
   <time name="total">    0.50    0.50</time>
   <energy>
    <i name="alphaZ">    123.33301175 </i>
    <i name="ewald">  -1404.97235287 </i>
    <i name="hartreedc">   -117.30396575 </i>
    <i name="XCdc">    114.90022453 </i>
    <i name="pawpsdc">   4212.10559847 </i>
    <i name="pawaedc">  -4218.11149327 </i>
    <i name="eentropy">     -0.02246892 </i>
    <i name="bandstr">     64.48732671 </i>
    <i name="atom">   1177.20230207 </i>
    <i name="e_fr_energy">    -48.38181728 </i>
    <i name="e_wo_entrp">    -48.35934837 </i>
    <i name="e_0_energy">    -48.37058283 </i>
   </energy>
  </scstep>
  <scstep>
   <time name="dav">    0.51    0.51</time>
   <time name="total">    0.57    0.57</time>
   <energy>
    <i name="e_fr_energy">    -48.07867162 </i>
    <i name="e_wo_entrp">    -48.06165915 </i>
    <i name="e_0_energy">    -48.07016538 </i>
   </energy>
  </scstep>
  <scstep>
   <time name="dav">    0.50    0.50</time>
   <time name="total">    0.57    0.57</time>
   <energy>
    <i name="e_fr_energy">    -47.95746422 </i>
    <i name="e_wo_entrp">    -47.94452603 </i>
[...]
       <r>    0.3994    1.0000 </r>
       <r>    0.7731    1.0000 </r>
       <r>    0.8519    1.0000 </r>
       <r>    1.8706    1.0000 </r>
       <r>    3.5989    1.0000 </r>
       <r>    5.4488    1.0000 </r>
       <r>    7.8143    1.0000 </r>
       <r>    9.2594    1.0000 </r>
       <r>    9.9870    1.0000 </r>
       <r>   11.0832    0.7035 </r>
       <r>   11.1859    0.1793 </r>
       <r>   11.9865    0.0000 </r>
       <r>   12.2931    0.0000 </r>
       <r>   16.2224    0.0000 </r>
       <r>   18.5672    0.0000 </r>
       <r>   20.8792    0.0000 </r>
      </set>
      <set comment="kpoint 30">
       <r>  -10.4434    1.0000 </r>
       <r>   -7.7777    1.0000 </r>
       <r>   -5.3057    1.0000 </r>
       <r>   -4.2862    1.0000 </r>
       <r>   -2.0130    1.0000 </r>
       <r>   -0.9243    1.0000 </r>
       <r>   -0.3818    1.0000 </r>
       <r>    0.3334    1.0000 </r>
       <r>    0.4542    1.0000 </r>
       <r>    2.7817    1.0000 </r>
       <r>    3.4373    1.0000 </r>
       <r>    7.5221    1.0000 </r>
       <r>    8.4746    1.0000 </r>
       <r>   10.4591    1.0000 </r>
       <r>   10.5942    1.0000 </r>
       <r>   10.7322    1.0000 </r>
       <r>   12.3395    0.0000 </r>
       <r>   13.6561    0.0000 </r>
       <r>   14.9105    0.0000 </r>
       <r>   15.8781    0.0000 </r>
       <r>   17.1310    0.0000 </r>
       <r>   18.8632    0.0000 </r>
      </set>
      <set comment="kpoint 31">
       <r>   -8.8378    1.0000 </r>
       <r>   -8.8332    1.0000 </r>
       <r>   -7.6509    1.0000 </r>
       <r>   -4.3050    1.0000 </r>
       <r>   -1.5518    1.0000 </r>
       <r>   -1.1933    1.0000 </r>
       <r>    0.9236    1.0000 </r>
       <r>    2.0166    1.0000 </r>
       <r>    2.0703    1.0000 </r>
       <r>    2.8525    1.0000 </r>
       <r>    4.6220    1.0000 </r>
       <r>    5.3359    1.0000 </r>
       <r>    7.7406    1.0000 </r>
       <r>    8.5874    1.0000 </r>
       <r>    8.8475    1.0000 </r>
       <r>   10.1966    1.0000 </r>
       <r>   12.6286    0.0000 </r>
       <r>   12.6839    0.0000 </r>
       <r>   15.7745    0.0000 </r>
       <r>   16.0892    0.0000 </r>
       <r>   17.0132    0.0000 </r>
       <r>   19.8441    0.0000 </r>
      </set>
      <set comment="kpoint 32">
       <r>   -9.8793    1.0000 </r>
       <r>   -8.8991    1.0000 </r>
       <r>   -6.2548    1.0000 </r>
       <r>   -5.5578    1.0000 </r>
       <r>   -0.3664    1.0000 </r>
       <r>    1.0838    1.0000 </r>
       <r>    1.8962    1.0000 </r>
       <r>    2.2015    1.0000 </r>
       <r>    2.8907    1.0000 </r>
       <r>    3.5337    1.0000 </r>
       <r>    4.3770    1.0000 </r>
       <r>    4.7910    1.0000 </r>
       <r>    5.3058    1.0000 </r>
       <r>    6.4211    1.0000 </r>
       <r>    6.9510    1.0000 </r>
       <r>   10.7763    1.0000 </r>
       <r>   11.4239    0.0000 </r>
       <r>   12.9447    0.0000 </r>
       <r>   13.5665    0.0000 </r>
       <r>   13.8958    0.0000 </r>
       <r>   18.9255    0.0000 </r>
       <r>   21.9566    0.0000 </r>
      </set>
     </set>
    </set>
   </array>
  </eigenvalues>
  <separator name="orbital magnetization" >
   <v name="MAGDIPOLOUT">      0.00000000      0.00000000      0.00000000</v>
  </separator>
  <dos>
   <i name="efermi">     11.12102096 </i>
   <total>
    <array>
     <dimension dim="1">gridpoints</dimension>
     <dimension dim="2">spin</dimension>
     <field>energy</field>
     <field>total</field>
     <field>integrated</field>
     <set>
      <set comment="spin 1">
       <r>   -13.5401     0.0000     0.0000 </r>
       <r>   -13.4162     0.0000     0.0000 </r>
       <r>   -13.2922     0.0000     0.0000 </r>
       <r>   -13.1683     0.0000     0.0000 </r>
       <r>   -13.0443     0.0000     0.0000 </r>
       <r>   -12.9203     0.0000     0.0000 </r>
       <r>   -12.7964     0.0000     0.0000 </r>
       <r>   -12.6724     0.0000     0.0000 </r>
       <r>   -12.5485     0.0000     0.0000 </r>
       <r>   -12.4245     0.0000     0.0000 </r>
       <r>   -12.3006     0.0000     0.0000 </r>
       <r>   -12.1766     0.0000     0.0000 </r>
       <r>   -12.0526     0.0011     0.0001 </r>
       <r>   -11.9287     0.0754     0.0095 </r>
       <r>   -11.8047     0.5007     0.0715 </r>
       <r>   -11.6808     0.6191     0.1483 </r>
       <r>   -11.5568     0.3109     0.1868 </r>
       <r>   -11.4329     0.2577     0.2187 </r>
       <r>   -11.3089     0.2321     0.2475 </r>
       <r>   -11.1849     0.0201     0.2500 </r>
       <r>   -11.0610     0.0301     0.2537 </r>
       <r>   -10.9370     0.4490     0.3094 </r>
       <r>   -10.8131     0.9983     0.4331 </r>
       <r>   -10.6891     0.9532     0.5513 </r>
       <r>   -10.5652     0.7052     0.6387 </r>
       <r>   -10.4412     0.6376     0.7177 </r>
       <r>   -10.3172     0.5778     0.7894 </r>
       <r>   -10.1933     1.1515     0.9321 </r>
       <r>   -10.0693     0.7686     1.0274 </r>
       <r>    -9.9454     0.5751     1.0986 </r>
       <r>    -9.8214     0.6131     1.1746 </r>
       <r>    -9.6975     0.5971     1.2487 </r>
       <r>    -9.5735     1.3403     1.4148 </r>
       <r>    -9.4495     0.6458     1.4948 </r>
       <r>    -9.3256     0.0680     1.5033 </r>
       <r>    -9.2016     0.3810     1.5505 </r>
       <r>    -9.0777     0.5303     1.6162 </r>
       <r>    -8.9537     0.2752     1.6503 </r>
       <r>    -8.8298     1.3118     1.8129 </r>
       <r>    -8.7058     1.5409     2.0040 </r>
       <r>    -8.5819     0.9303     2.1193 </r>
       <r>    -8.4579     1.2107     2.2693 </r>
       <r>    -8.3339     1.8443     2.4980 </r>
       <r>    -8.2100     1.8077     2.7220 </r>
       <r>    -8.0860     1.8183     2.9474 </r>
       <r>    -7.9621     1.1516     3.0902 </r>
       <r>    -7.8381     1.6754     3.2978 </r>
       <r>    -7.7142     1.7299     3.5123 </r>
       <r>    -7.5902     1.2128     3.6626 </r>
       <r>    -7.4662     0.9144     3.7760 </r>
       <r>    -7.3423     0.5473     3.8438 </r>
       <r>    -7.2183     1.1143     3.9819 </r>
       <r>    -7.0944     1.0746     4.1151 </r>
       <r>    -6.9704     0.4417     4.1699 </r>
       <r>    -6.8465     0.5157     4.2338 </r>
       <r>    -6.7225     0.5463     4.3015 </r>
       <r>    -6.5985     0.4846     4.3616 </r>
       <r>    -6.4746     1.2458     4.5160 </r>
       <r>    -6.3506     1.5156     4.7039 </r>
       <r>    -6.2267     1.7272     4.9180 </r>
       <r>    -6.1027     2.0705     5.1747 </r>
       <r>    -5.9788     1.4115     5.3496 </r>
       <r>    -5.8548     1.1046     5.4865 </r>
       <r>    -5.7308     0.8544     5.5924 </r>
       <r>    -5.6069     1.0205     5.7189 </r>
       <r>    -5.4829     1.2779     5.8773 </r>
       <r>    -5.3590     1.1840     6.0241 </r>
       <r>    -5.2350     1.1330     6.1646 </r>
       <r>    -5.1111     1.1335     6.3051 </r>
       <r>    -4.9871     1.4840     6.4890 </r>
       <r>    -4.8631     0.7746     6.5850 </r>
       <r>    -4.7392     0.5575     6.6541 </r>
       <r>    -4.6152     0.3745     6.7006 </r>
       <r>    -4.4913     0.3997     6.7501 </r>
       <r>    -4.3673     0.8982     6.8614 </r>
       <r>    -4.2434     1.6751     7.0691 </r>
       <r>    -4.1194     0.9222     7.1834 </r>
       <r>    -3.9955     1.0050     7.3080 </r>
       <r>    -3.8715     1.1365     7.4488 </r>
       <r>    -3.7475     1.9127     7.6859 </r>
       <r>    -3.6236     1.6428     7.8896 </r>
       <r>    -3.4996     0.5422     7.9568 </r>
       <r>    -3.3757     0.5132     8.0204 </r>
       <r>    -3.2517     1.0234     8.1472 </r>
       <r>    -3.1278     1.2376     8.3006 </r>
       <r>    -3.0038     1.1529     8.4436 </r>
       <r>    -2.8798     1.4422     8.6223 </r>
       <r>    -2.7559     1.2890     8.7821 </r>
       <r>    -2.6319     1.3831     8.9536 </r>
       <r>    -2.5080     0.8548     9.0595 </r>
       <r>    -2.3840     0.8762     9.1681 </r>
       <r>    -2.2601     0.1615     9.1882 </r>
       <r>    -2.1361     0.1924     9.2120 </r>
       <r>    -2.0121     0.7701     9.3075 </r>
       <r>    -1.8882     1.3981     9.4808 </r>
       <r>    -1.7642     1.5507     9.6730 </r>
       <r>    -1.6403     0.9807     9.7945 </r>
       <r>    -1.5163     1.4538     9.9747 </r>
       <r>    -1.3924     1.4543    10.1550 </r>
       <r>    -1.2684     1.8885    10.3891 </r>
       <r>    -1.1444     1.8537    10.6189 </r>
       <r>    -1.0205     1.0800    10.7528 </r>
       <r>    -0.8965     1.3837    10.9243 </r>
       <r>    -0.7726     1.6766    11.1321 </r>
       <r>    -0.6486     1.7287    11.3464 </r>
       <r>    -0.5247     1.1599    11.4902 </r>
       <r>    -0.4007     1.2947    11.6507 </r>
       <r>    -0.2767     2.6789    11.9827 </r>
       <r>    -0.1528     2.8992    12.3421 </r>
       <r>    -0.0288     1.6547    12.5472 </r>
       <r>     0.0951     0.5895    12.6203 </r>
       <r>     0.2191     0.5920    12.6937 </r>
       <r>     0.3430     1.0538    12.8243 </r>
       <r>     0.4670     1.7749    13.0443 </r>
       <r>     0.5909     2.3258    13.3326 </r>
       <r>     0.7149     2.4404    13.6351 </r>
       <r>     0.8389     2.7815    13.9799 </r>
       <r>     0.9628     2.6969    14.3142 </r>
       <r>     1.0868     2.0076    14.5630 </r>
       <r>     1.2107     1.8563    14.7931 </r>
       <r>     1.3347     1.6048    14.9921 </r>
       <r>     1.4586     1.0255    15.1192 </r>
       <r>     1.5826     1.0382    15.2479 </r>
       <r>     1.7066     1.2038    15.3971 </r>
       <r>     1.8305     1.4093    15.5718 </r>
       <r>     1.9545     1.7253    15.7857 </r>
       <r>     2.0784     2.2686    16.0669 </r>
       <r>     2.2024     1.8066    16.2908 </r>
       <r>     2.3263     1.6971    16.5012 </r>
       <r>     2.4503     2.0428    16.7544 </r>
       <r>     2.5743     1.6157    16.9547 </r>
       <r>     2.6982     0.9939    17.0779 </r>
       <r>     2.8222     2.2125    17.3521 </r>
       <r>     2.9461     2.6488    17.6805 </r>
       <r>     3.0701     1.6157    17.8807 </r>
       <r>     3.1940     1.2909    18.0407 </r>
       <r>     3.3180     2.9587    18.4075 </r>
       <r>     3.4420     3.3868    18.8273 </r>
       <r>     3.5659     2.4073    19.1257 </r>
       <r>     3.6899     2.2258    19.4016 </r>
       <r>     3.8138     2.7506    19.7426 </r>
       <r>     3.9378     1.9859    19.9887 </r>
       <r>     4.0617     1.8175    20.2140 </r>
       <r>     4.1857     1.5475    20.4059 </r>
       <r>     4.3097     1.7536    20.6232 </r>
       <r>     4.4336     2.3442    20.9138 </r>
       <r>     4.5576     2.2805    21.1965 </r>
       <r>     4.6815     2.9639    21.5639 </r>
       <r>     4.8055     3.5121    21.9992 </r>
       <r>     4.9294     1.9672    22.2431 </r>
       <r>     5.0534     2.0676    22.4994 </r>
       <r>     5.1774     3.0349    22.8756 </r>
       <r>     5.3013     2.0563    23.1305 </r>
       <r>     5.4253     1.8365    23.3581 </r>
       <r>     5.5492     1.1464    23.5002 </r>
       <r>     5.6732     0.8527    23.6059 </r>
       <r>     5.7971     1.1468    23.7481 </r>
       <r>     5.9211     0.5331    23.8142 </r>
       <r>     6.0450     0.4666    23.8720 </r>
       <r>     6.1690     0.6976    23.9585 </r>
       <r>     6.2930     1.1304    24.0986 </r>
       <r>     6.4169     1.8999    24.3341 </r>
       <r>     6.5409     1.9496    24.5758 </r>
       <r>     6.6648     0.9339    24.6915 </r>
       <r>     6.7888     0.8301    24.7944 </r>
       <r>     6.9127     0.7240    24.8842 </r>
       <r>     7.0367     0.6636    24.9664 </r>
       <r>     7.1607     1.3173    25.1297 </r>
       <r>     7.2846     1.4085    25.3043 </r>
       <r>     7.4086     1.2408    25.4581 </r>
       <r>     7.5325     1.6063    25.6572 </r>
       <r>     7.6565     1.6508    25.8619 </r>
       <r>     7.7804     1.9566    26.1044 </r>
       <r>     7.9044     1.0174    26.2305 </r>
       <r>     8.0284     0.7263    26.3205 </r>
       <r>     8.1523     1.2184    26.4716 </r>
       <r>     8.2763     1.9404    26.7121 </r>
       <r>     8.4002     1.7084    26.9239 </r>
       <r>     8.5242     1.5603    27.1173 </r>
       <r>     8.6481     1.3937    27.2900 </r>
       <r>     8.7721     1.9047    27.5261 </r>
       <r>     8.8961     2.3399    27.8162 </r>
       <r>     9.0200     2.1169    28.0786 </r>
       <r>     9.1440     1.8095    28.3029 </r>
       <r>     9.2679     1.7619    28.5213 </r>
       <r>     9.3919     0.9299    28.6365 </r>
       <r>     9.5158     1.3035    28.7981 </r>
       <r>     9.6398     2.3893    29.0943 </r>
       <r>     9.7638     1.7491    29.3111 </r>
       <r>     9.8877     1.7556    29.5287 </r>
       <r>    10.0117     1.8358    29.7563 </r>
       <r>    10.1356     1.6995    29.9669 </r>
       <r>    10.2596     1.8191    30.1924 </r>
       <r>    10.3835     1.5472    30.3842 </r>
       <r>    10.5075     1.3520    30.5518 </r>
       <r>    10.6314     1.6614    30.7577 </r>
       <r>    10.7554     2.8242    31.1078 </r>
       <r>    10.8794     2.6397    31.4350 </r>
       <r>    11.0033     2.3574    31.7272 </r>
       <r>    11.1273     2.3061    32.0131 </r>
       <r>    11.2512     1.7390    32.2287 </r>
       <r>    11.3752     1.4017    32.4024 </r>
       <r>    11.4991     1.3635    32.5714 </r>
       <r>    11.6231     1.1018    32.7080 </r>
       <r>    11.7471     1.2528    32.8633 </r>
       <r>    11.8710     2.0607    33.1187 </r>
       <r>    11.9950     2.2287    33.3950 </r>
       <r>    12.1189     1.2953    33.5556 </r>
       <r>    12.2429     0.8235    33.6576 </r>
       <r>    12.3668     1.6421    33.8612 </r>
       <r>    12.4908     2.0116    34.1105 </r>
       <r>    12.6148     1.1300    34.2506 </r>
       <r>    12.7387     1.1468    34.3928 </r>
       <r>    12.8627     1.6417    34.5963 </r>
       <r>    12.9866     2.0299    34.8479 </r>
       <r>    13.1106     1.0307    34.9756 </r>
       <r>    13.2345     0.2637    35.0083 </r>
       <r>    13.3585     0.5564    35.0773 </r>
       <r>    13.4825     0.6042    35.1522 </r>
       <r>    13.6064     1.7607    35.3705 </r>
       <r>    13.7304     1.7708    35.5900 </r>
       <r>    13.8543     0.7990    35.6890 </r>
       <r>    13.9783     1.8859    35.9228 </r>
       <r>    14.1022     2.1586    36.1903 </r>
       <r>    14.2262     1.0478    36.3202 </r>
       <r>    14.3502     0.4130    36.3714 </r>
       <r>    14.4741     0.3330    36.4127 </r>
       <r>    14.5981     0.9781    36.5339 </r>
       <r>    14.7220     1.1471    36.6761 </r>
       <r>    14.8460     2.5565    36.9930 </r>
       <r>    14.9699     3.6859    37.4499 </r>
       <r>    15.0939     2.0159    37.6998 </r>
       <r>    15.2178     1.4701    37.8820 </r>
       <r>    15.3418     1.6146    38.0822 </r>
       <r>    15.4658     0.8474    38.1872 </r>
       <r>    15.5897     0.7526    38.2805 </r>
       <r>    15.7137     1.2148    38.4311 </r>
       <r>    15.8376     1.4464    38.6104 </r>
       <r>    15.9616     1.5511    38.8026 </r>
       <r>    16.0855     2.5997    39.1249 </r>
       <r>    16.2095     3.0998    39.5091 </r>
       <r>    16.3335     1.5036    39.6955 </r>
       <r>    16.4574     1.0030    39.8198 </r>
       <r>    16.5814     1.4403    39.9984 </r>
       <r>    16.7053     1.6079    40.1977 </r>
       <r>    16.8293     1.4760    40.3807 </r>
       <r>    16.9532     1.9767    40.6257 </r>
       <r>    17.0772     1.2423    40.7797 </r>
       <r>    17.2012     0.9678    40.8996 </r>
       <r>    17.3251     1.2867    41.0591 </r>
       <r>    17.4491     1.1097    41.1967 </r>
       <r>    17.5730     1.0012    41.3208 </r>
       <r>    17.6970     0.9993    41.4447 </r>
       <r>    17.8209     1.8705    41.6765 </r>
       <r>    17.9449     1.9524    41.9185 </r>
       <r>    18.0689     1.7215    42.1319 </r>
       <r>    18.1928     1.1616    42.2759 </r>
       <r>    18.3168     0.8574    42.3822 </r>
       <r>    18.4407     0.7422    42.4742 </r>
       <r>    18.5647     0.6383    42.5533 </r>
       <r>    18.6886     1.0359    42.6817 </r>
       <r>    18.8126     1.1764    42.8276 </r>
       <r>    18.9366     1.3738    42.9978 </r>
       <r>    19.0605     1.2601    43.1540 </r>
       <r>    19.1845     1.1170    43.2925 </r>
       <r>    19.3084     0.5629    43.3623 </r>
       <r>    19.4324     0.2739    43.3962 </r>
       <r>    19.5563     0.5119    43.4597 </r>
       <r>    19.6803     0.5622    43.5294 </r>
       <r>    19.8042     0.6972    43.6158 </r>
       <r>    19.9282     0.5540    43.6845 </r>
       <r>    20.0522     0.3551    43.7285 </r>
       <r>    20.1761     0.1657    43.7490 </r>
       <r>    20.3001     0.0078    43.7500 </r>
       <r>    20.4240     0.0015    43.7502 </r>
       <r>    20.5480     0.0824    43.7604 </r>
       <r>    20.6719     0.4445    43.8155 </r>
       <r>    20.7959     0.4743    43.8743 </r>
       <r>    20.9199     0.3666    43.9197 </r>
       <r>    21.0438     0.1384    43.9369 </r>
       <r>    21.1678     0.0050    43.9375 </r>
       <r>    21.2917     0.0000    43.9375 </r>
       <r>    21.4157     0.0000    43.9375 </r>
       <r>    21.5396     0.0000    43.9375 </r>
       <r>    21.6636     0.0000    43.9375 </r>
       <r>    21.7876     0.0042    43.9380 </r>
       <r>    21.9115     0.1278    43.9539 </r>
       <r>    22.0355     0.3054    43.9917 </r>
       <r>    22.1594     0.0657    43.9999 </r>
       <r>    22.2834     0.0010    44.0000 </r>
       <r>    22.4073     0.0000    44.0000 </r>
       <r>    22.5313     0.0000    44.0000 </r>
       <r>    22.6553     0.0000    44.0000 </r>
       <r>    22.7792     0.0000    44.0000 </r>
       <r>    22.9032     0.0000    44.0000 </r>
       <r>    23.0271     0.0000    44.0000 </r>
       <r>    23.1511     0.0000    44.0000 </r>
       <r>    23.2750     0.0000    44.0000 </r>
       <r>    23.3990     0.0000    44.0000 </r>
       <r>    23.5230     0.0000    44.0000 </r>
       <r>    23.6469     0.0000    44.0000 </r>
      </set>
     </set>
    </array>
   </total>
  </dos>
 </calculation>
 <structure name="finalpos" >
  <crystal>
   <varray name="basis" >
    <v>       0.52113518      -3.45361408       0.87321479 </v>
    <v>       3.04598414       0.79353083      -1.66469072 </v>
    <v>       2.03476297      -0.34894749       3.07047828 </v>
   </varray>
   <i name="volume">     42.62759621 </i>
   <varray name="rec_basis" >
    <v>       0.04353118      -0.29886459      -0.06281226 </v>
    <v>       0.24161674      -0.00414405      -0.16058699 </v>
    <v>       0.11861510       0.08274751       0.25648152 </v>
   </varray>
  </crystal>
  <varray name="positions" >
   <v>       0.33869823       0.34434838       0.57011413 </v>
   <v>       0.16130177       0.15565162       0.92988587 </v>
   <v>       0.33869823       0.84434838       0.07011413 </v>
   <v>       0.16130177       0.65565162       0.42988587 </v>
   <v>       0.83869823       0.34434838       0.07011413 </v>
   <v>       0.66130177       0.15565162       0.42988587 </v>
   <v>       0.83869823       0.84434838       0.57011413 </v>
   <v>       0.66130177       0.65565162       0.92988587 </v>
  </varray>
  <varray name="selective"  type="logical" >
   <v type="logical" >  T  T  T </v>
   <v type="logical" >  T  T  T </v>
   <v type="logical" >  T  T  T </v>
   <v type="logical" >  T  T  T </v>
   <v type="logical" >  T  T  T </v>
   <v type="logical" >  T  T  T </v>
   <v type="logical" >  T  T  T </v>
   <v type="logical" >  T  T  T </v>
  </varray>
  <nose>
   <v>      -3.00000000       0.00000000       0.00010000       0.00010000 </v>
  </nose>
 </structure>
</modeling>
