unknown system                          
           1
     0.521135   -3.453614    0.873215
     3.045984    0.793531   -1.664691
     2.034763   -0.348947    3.070478
   C 
     8
Direct configuration=     1
   0.12500000  0.12500000  0.62500000
   0.37500000  0.37500000  0.87500000
   0.12500000  0.62500000  0.12500000
   0.37500000  0.87500000  0.37500000
   0.62500000  0.12500000  0.12500000
   0.87500000  0.37500000  0.37500000
   0.62500000  0.62500000  0.62500000
   0.87500000  0.87500000  0.87500000
Direct configuration=     2
   0.26804883  0.25498080  0.50327658
   0.23195117  0.24501920  0.99672342
   0.26804883  0.75498080  0.00327658
   0.23195117  0.74501920  0.49672342
   0.76804883  0.25498080  0.00327658
   0.73195117  0.24501920  0.49672342
   0.76804883  0.75498080  0.50327658
   0.73195117  0.74501920  0.99672342
Direct configuration=     3
   0.26844570  0.25534141  0.50293888
   0.23155430  0.24465859  0.99706112
   0.26844570  0.75534141  0.00293888
   0.23155430  0.74465859  0.49706112
   0.76844570  0.25534141  0.00293888
   0.73155430  0.24465859  0.49706112
   0.76844570  0.75534141  0.50293888
   0.73155430  0.74465859  0.99706112
Direct configuration=     4
   0.29036272  0.25740323  0.51624686
   0.20963728  0.24259677  0.98375314
   0.29036272  0.75740323  0.01624686
   0.20963728  0.74259677  0.48375314
   0.79036272  0.25740323  0.01624686
   0.70963728  0.24259677  0.48375314
   0.79036272  0.75740323  0.51624686
   0.70963728  0.74259677  0.98375314
Direct configuration=     5
   0.35611378  0.26358868  0.55617079
   0.14388622  0.23641132  0.94382921
   0.35611378  0.76358868  0.05617079
   0.14388622  0.73641132  0.44382921
   0.85611378  0.26358868  0.05617079
   0.64388622  0.23641132  0.44382921
   0.85611378  0.76358868  0.55617079
   0.64388622  0.73641132  0.94382921
Direct configuration=     6
   0.29489298  0.25782941  0.51899763
   0.20510702  0.24217059  0.98100237
   0.29489298  0.75782941  0.01899763
   0.20510702  0.74217059  0.48100237
   0.79489298  0.25782941  0.01899763
   0.70510702  0.24217059  0.48100237
   0.79489298  0.75782941  0.51899763
   0.70510702  0.74217059  0.98100237
Direct configuration=     7
   0.30492781  0.25877342  0.52509076
   0.19507219  0.24122658  0.97490924
   0.30492781  0.75877342  0.02509076
   0.19507219  0.74122658  0.47490924
   0.80492781  0.25877342  0.02509076
   0.69507219  0.24122658  0.47490924
   0.80492781  0.75877342  0.52509076
   0.69507219  0.74122658  0.97490924
Direct configuration=     8
   0.30412869  0.25821630  0.54582124
   0.19587131  0.24178370  0.95417876
   0.30412869  0.75821630  0.04582124
   0.19587131  0.74178370  0.45417876
   0.80412869  0.25821630  0.04582124
   0.69587131  0.24178370  0.45417876
   0.80412869  0.75821630  0.54582124
   0.69587131  0.74178370  0.95417876
Direct configuration=     9
   0.30173135  0.25654494  0.60801270
   0.19826865  0.24345506  0.89198730
   0.30173135  0.75654494  0.10801270
   0.19826865  0.74345506  0.39198730
   0.80173135  0.25654494  0.10801270
   0.69826865  0.24345506  0.39198730
   0.80173135  0.75654494  0.60801270
   0.69826865  0.74345506  0.89198730
Direct configuration=    10
   0.30405099  0.25816213  0.54783704
   0.19594901  0.24183787  0.95216296
   0.30405099  0.75816213  0.04783704
   0.19594901  0.74183787  0.45216296
   0.80405099  0.25816213  0.04783704
   0.69594901  0.24183787  0.45216296
   0.80405099  0.75816213  0.54783704
   0.69594901  0.74183787  0.95216296
Direct configuration=    11
   0.30289117  0.25735354  0.57792487
   0.19710883  0.24264646  0.92207513
   0.30289117  0.75735354  0.07792487
   0.19710883  0.74264646  0.42207513
   0.80289117  0.25735354  0.07792487
   0.69710883  0.24264646  0.42207513
   0.80289117  0.75735354  0.57792487
   0.69710883  0.74264646  0.92207513
Direct configuration=    12
   0.30389209  0.25805135  0.55195927
   0.19610791  0.24194865  0.94804073
   0.30389209  0.75805135  0.05195927
   0.19610791  0.74194865  0.44804073
   0.80389209  0.25805135  0.05195927
   0.69610791  0.24194865  0.44804073
   0.80389209  0.75805135  0.55195927
   0.69610791  0.74194865  0.94804073
Direct configuration=    13
   0.30339480  0.25770465  0.56485970
   0.19660520  0.24229535  0.93514030
   0.30339480  0.75770465  0.06485970
   0.19660520  0.74229535  0.43514030
   0.80339480  0.25770465  0.06485970
   0.69660520  0.24229535  0.43514030
   0.80339480  0.75770465  0.56485970
   0.69660520  0.74229535  0.93514030
Direct configuration=    14
   0.30374858  0.25795130  0.55568193
   0.19625142  0.24204870  0.94431807
   0.30374858  0.75795130  0.05568193
   0.19625142  0.74204870  0.44431807
   0.80374858  0.25795130  0.05568193
   0.69625142  0.24204870  0.44431807
   0.80374858  0.75795130  0.55568193
   0.69625142  0.74204870  0.94431807
Direct configuration=    15
   0.30368943  0.25791006  0.55721659
   0.19631057  0.24208994  0.94278341
   0.30368943  0.75791006  0.05721659
   0.19631057  0.74208994  0.44278341
   0.80368943  0.25791006  0.05721659
   0.69631057  0.24208994  0.44278341
   0.80368943  0.75791006  0.55721659
   0.69631057  0.74208994  0.94278341
Direct configuration=    16
   0.30370105  0.25791816  0.55691510
   0.19629895  0.24208184  0.94308490
   0.30370105  0.75791816  0.05691510
   0.19629895  0.74208184  0.44308490
   0.80370105  0.25791816  0.05691510
   0.69629895  0.24208184  0.44308490
   0.80370105  0.75791816  0.55691510
   0.69629895  0.74208184  0.94308490
Direct configuration=    17
   0.30463465  0.26645907  0.56236877
   0.19536535  0.23354093  0.93763123
   0.30463465  0.76645907  0.06236877
   0.19536535  0.73354093  0.43763123
   0.80463465  0.26645907  0.06236877
   0.69536535  0.23354093  0.43763123
   0.80463465  0.76645907  0.56236877
   0.69536535  0.73354093  0.93763123
Direct configuration=    18
   0.30743546  0.29208179  0.57872976
   0.19256454  0.20791821  0.92127024
   0.30743546  0.79208179  0.07872976
   0.19256454  0.70791821  0.42127024
   0.80743546  0.29208179  0.07872976
   0.69256454  0.20791821  0.42127024
   0.80743546  0.79208179  0.57872976
   0.69256454  0.70791821  0.92127024
Direct configuration=    19
   0.30578527  0.27698531  0.56909014
   0.19421473  0.22301469  0.93090986
   0.30578527  0.77698531  0.06909014
   0.19421473  0.72301469  0.43090986
   0.80578527  0.27698531  0.06909014
   0.69421473  0.22301469  0.43090986
   0.80578527  0.77698531  0.56909014
   0.69421473  0.72301469  0.93090986
Direct configuration=    20
   0.30650214  0.28354347  0.57327775
   0.19349786  0.21645653  0.92672225
   0.30650214  0.78354347  0.07327775
   0.19349786  0.71645653  0.42672225
   0.80650214  0.28354347  0.07327775
   0.69349786  0.21645653  0.42672225
   0.80650214  0.78354347  0.57327775
   0.69349786  0.71645653  0.92672225
Direct configuration=    21
   0.30654233  0.28378429  0.57339034
   0.19345767  0.21621571  0.92660966
   0.30654233  0.78378429  0.07339034
   0.19345767  0.71621571  0.42660966
   0.80654233  0.28378429  0.07339034
   0.69345767  0.21621571  0.42660966
   0.80654233  0.78378429  0.57339034
   0.69345767  0.71621571  0.92660966
Direct configuration=    22
   0.30666289  0.28450677  0.57372811
   0.19333711  0.21549323  0.92627189
   0.30666289  0.78450677  0.07372811
   0.19333711  0.71549323  0.42627189
   0.80666289  0.28450677  0.07372811
   0.69333711  0.21549323  0.42627189
   0.80666289  0.78450677  0.57372811
   0.69333711  0.71549323  0.92627189
Direct configuration=    23
   0.30690402  0.28595171  0.57440364
   0.19309598  0.21404829  0.92559636
   0.30690402  0.78595171  0.07440364
   0.19309598  0.71404829  0.42559636
   0.80690402  0.28595171  0.07440364
   0.69309598  0.21404829  0.42559636
   0.80690402  0.78595171  0.57440364
   0.69309598  0.71404829  0.92559636
Direct configuration=    24
   0.30738627  0.28884160  0.57575470
   0.19261373  0.21115840  0.92424530
   0.30738627  0.78884160  0.07575470
   0.19261373  0.71115840  0.42424530
   0.80738627  0.28884160  0.07575470
   0.69261373  0.21115840  0.42424530
   0.80738627  0.78884160  0.57575470
   0.69261373  0.71115840  0.92424530
Direct configuration=    25
   0.30835077  0.29462139  0.57845684
   0.19164923  0.20537861  0.92154316
   0.30835077  0.79462139  0.07845684
   0.19164923  0.70537861  0.42154316
   0.80835077  0.29462139  0.07845684
   0.69164923  0.20537861  0.42154316
   0.80835077  0.79462139  0.57845684
   0.69164923  0.70537861  0.92154316
Direct configuration=    26
   0.30875297  0.29593322  0.57856410
   0.19124703  0.20406678  0.92143590
   0.30875297  0.79593322  0.07856410
   0.19124703  0.70406678  0.42143590
   0.80875297  0.29593322  0.07856410
   0.69124703  0.20406678  0.42143590
   0.80875297  0.79593322  0.57856410
   0.69124703  0.70406678  0.92143590
Direct configuration=    27
   0.30995958  0.29986874  0.57888589
   0.19004042  0.20013126  0.92111411
   0.30995958  0.79986874  0.07888589
   0.19004042  0.70013126  0.42111411
   0.80995958  0.29986874  0.07888589
   0.69004042  0.20013126  0.42111411
   0.80995958  0.79986874  0.57888589
   0.69004042  0.70013126  0.92111411
Direct configuration=    28
   0.31237279  0.30773976  0.57952947
   0.18762721  0.19226024  0.92047053
   0.31237279  0.80773976  0.07952947
   0.18762721  0.69226024  0.42047053
   0.81237279  0.30773976  0.07952947
   0.68762721  0.19226024  0.42047053
   0.81237279  0.80773976  0.57952947
   0.68762721  0.69226024  0.92047053
Direct configuration=    29
   0.31719922  0.32348181  0.58081663
   0.18280078  0.17651819  0.91918337
   0.31719922  0.82348181  0.08081663
   0.18280078  0.67651819  0.41918337
   0.81719922  0.32348181  0.08081663
   0.68280078  0.17651819  0.41918337
   0.81719922  0.82348181  0.58081663
   0.68280078  0.67651819  0.91918337
Direct configuration=    30
   0.32685207  0.35496590  0.58339096
   0.17314793  0.14503410  0.91660904
   0.32685207  0.85496590  0.08339096
   0.17314793  0.64503410  0.41660904
   0.82685207  0.35496590  0.08339096
   0.67314793  0.14503410  0.41660904
   0.82685207  0.85496590  0.58339096
   0.67314793  0.64503410  0.91660904
Direct configuration=    31
   0.32706560  0.35270743  0.58175105
   0.17293440  0.14729257  0.91824895
   0.32706560  0.85270743  0.08175105
   0.17293440  0.64729257  0.41824895
   0.82706560  0.35270743  0.08175105
   0.67293440  0.14729257  0.41824895
   0.82706560  0.85270743  0.58175105
   0.67293440  0.64729257  0.91824895
Direct configuration=    32
   0.32770617  0.34593202  0.57683133
   0.17229383  0.15406798  0.92316867
   0.32770617  0.84593202  0.07683133
   0.17229383  0.65406798  0.42316867
   0.82770617  0.34593202  0.07683133
   0.67229383  0.15406798  0.42316867
   0.82770617  0.84593202  0.57683133
   0.67229383  0.65406798  0.92316867
Direct configuration=    33
   0.32898733  0.33238120  0.56699189
   0.17101267  0.16761880  0.93300811
   0.32898733  0.83238120  0.06699189
   0.17101267  0.66761880  0.43300811
   0.82898733  0.33238120  0.06699189
   0.67101267  0.16761880  0.43300811
   0.82898733  0.83238120  0.56699189
   0.67101267  0.66761880  0.93300811
Direct configuration=    34
   0.32855244  0.33698104  0.57033190
   0.17144756  0.16301896  0.92966810
   0.32855244  0.83698104  0.07033190
   0.17144756  0.66301896  0.42966810
   0.82855244  0.33698104  0.07033190
   0.67144756  0.16301896  0.42966810
   0.82855244  0.83698104  0.57033190
   0.67144756  0.66301896  0.92966810
Direct configuration=    35
   0.32861759  0.33629197  0.56983155
   0.17138241  0.16370803  0.93016845
   0.32861759  0.83629197  0.06983155
   0.17138241  0.66370803  0.43016845
   0.82861759  0.33629197  0.06983155
   0.67138241  0.16370803  0.43016845
   0.82861759  0.83629197  0.56983155
   0.67138241  0.66370803  0.93016845
Direct configuration=    36
   0.32969401  0.33803061  0.56955206
   0.17030599  0.16196939  0.93044794
   0.32969401  0.83803061  0.06955206
   0.17030599  0.66196939  0.43044794
   0.82969401  0.33803061  0.06955206
   0.67030599  0.16196939  0.43044794
   0.82969401  0.83803061  0.56955206
   0.67030599  0.66196939  0.93044794
Direct configuration=    37
   0.33292328  0.34324653  0.56871359
   0.16707672  0.15675347  0.93128641
   0.33292328  0.84324653  0.06871359
   0.16707672  0.65675347  0.43128641
   0.83292328  0.34324653  0.06871359
   0.66707672  0.15675347  0.43128641
   0.83292328  0.84324653  0.56871359
   0.66707672  0.65675347  0.93128641
Direct configuration=    38
   0.33371630  0.34452742  0.56850769
   0.16628370  0.15547258  0.93149231
   0.33371630  0.84452742  0.06850769
   0.16628370  0.65547258  0.43149231
   0.83371630  0.34452742  0.06850769
   0.66628370  0.15547258  0.43149231
   0.83371630  0.84452742  0.56850769
   0.66628370  0.65547258  0.93149231
Direct configuration=    39
   0.33430860  0.34440619  0.56863117
   0.16569140  0.15559381  0.93136883
   0.33430860  0.84440619  0.06863117
   0.16569140  0.65559381  0.43136883
   0.83430860  0.34440619  0.06863117
   0.66569140  0.15559381  0.43136883
   0.83430860  0.84440619  0.56863117
   0.66569140  0.65559381  0.93136883
Direct configuration=    40
   0.33608550  0.34404250  0.56900163
   0.16391450  0.15595750  0.93099837
   0.33608550  0.84404250  0.06900163
   0.16391450  0.65595750  0.43099837
   0.83608550  0.34404250  0.06900163
   0.66391450  0.15595750  0.43099837
   0.83608550  0.84404250  0.56900163
   0.66391450  0.65595750  0.93099837
Direct configuration=    41
   0.33963929  0.34331512  0.56974254
   0.16036071  0.15668488  0.93025746
   0.33963929  0.84331512  0.06974254
   0.16036071  0.65668488  0.43025746
   0.83963929  0.34331512  0.06974254
   0.66036071  0.15668488  0.43025746
   0.83963929  0.84331512  0.56974254
   0.66036071  0.65668488  0.93025746
Direct configuration=    42
   0.33820285  0.34360913  0.56944306
   0.16179715  0.15639087  0.93055694
   0.33820285  0.84360913  0.06944306
   0.16179715  0.65639087  0.43055694
   0.83820285  0.34360913  0.06944306
   0.66179715  0.15639087  0.43055694
   0.83820285  0.84360913  0.56944306
   0.66179715  0.65639087  0.93055694
Direct configuration=    43
   0.33833055  0.34358299  0.56946969
   0.16166945  0.15641701  0.93053031
   0.33833055  0.84358299  0.06946969
   0.16166945  0.65641701  0.43053031
   0.83833055  0.34358299  0.06946969
   0.66166945  0.15641701  0.43053031
   0.83833055  0.84358299  0.56946969
   0.66166945  0.65641701  0.93053031
Direct configuration=    44
   0.33824830  0.34363636  0.57003392
   0.16175170  0.15636364  0.92996608
   0.33824830  0.84363636  0.07003392
   0.16175170  0.65636364  0.42996608
   0.83824830  0.34363636  0.07003392
   0.66175170  0.15636364  0.42996608
   0.83824830  0.84363636  0.57003392
   0.66175170  0.65636364  0.92996608
Direct configuration=    45
   0.33826035  0.34362855  0.56995128
   0.16173965  0.15637145  0.93004872
   0.33826035  0.84362855  0.06995128
   0.16173965  0.65637145  0.43004872
   0.83826035  0.34362855  0.06995128
   0.66173965  0.15637145  0.43004872
   0.83826035  0.84362855  0.56995128
   0.66173965  0.65637145  0.93004872
Direct configuration=    46
   0.33836122  0.34387828  0.56999630
   0.16163878  0.15612172  0.93000370
   0.33836122  0.84387828  0.06999630
   0.16163878  0.65612172  0.43000370
   0.83836122  0.34387828  0.06999630
   0.66163878  0.15612172  0.43000370
   0.83836122  0.84387828  0.56999630
   0.66163878  0.65612172  0.93000370
Direct configuration=    47
   0.33855477  0.34435746  0.57008267
   0.16144523  0.15564254  0.92991733
   0.33855477  0.84435746  0.07008267
   0.16144523  0.65564254  0.42991733
   0.83855477  0.34435746  0.07008267
   0.66144523  0.15564254  0.42991733
   0.83855477  0.84435746  0.57008267
   0.66144523  0.65564254  0.92991733
Direct configuration=    48
   0.33864749  0.34436451  0.57008125
   0.16135251  0.15563549  0.92991875
   0.33864749  0.84436451  0.07008125
   0.16135251  0.65563549  0.42991875
   0.83864749  0.34436451  0.07008125
   0.66135251  0.15563549  0.42991875
   0.83864749  0.84436451  0.57008125
   0.66135251  0.65563549  0.92991875
Direct configuration=    49
   0.33869230  0.34436792  0.57008056
   0.16130770  0.15563208  0.92991944
   0.33869230  0.84436792  0.07008056
   0.16130770  0.65563208  0.42991944
   0.83869230  0.34436792  0.07008056
   0.66130770  0.15563208  0.42991944
   0.83869230  0.84436792  0.57008056
   0.66130770  0.65563208  0.92991944
Direct configuration=    50
   0.33870320  0.34433202  0.57014223
   0.16129680  0.15566798  0.92985777
   0.33870320  0.84433202  0.07014223
   0.16129680  0.65566798  0.42985777
   0.83870320  0.34433202  0.07014223
   0.66129680  0.15566798  0.42985777
   0.83870320  0.84433202  0.57014223
   0.66129680  0.65566798  0.92985777
Direct configuration=    51
   0.33869823  0.34434838  0.57011413
   0.16130177  0.15565162  0.92988587
   0.33869823  0.84434838  0.07011413
   0.16130177  0.65565162  0.42988587
   0.83869823  0.34434838  0.07011413
   0.66130177  0.15565162  0.42988587
   0.83869823  0.84434838  0.57011413
   0.66130177  0.65565162  0.92988587
