   4   4   0   0
  0.5731718E+01  0.2701130E-09  0.2563919E-09  0.4180357E-09  0.5000000E-15
  1.000000000000000E-004
  CAR 
 unknown system                          
     22.12254819    -12.89489142  301     11.15406476      1.00000000
    -12.895  0.0000E+00  0.0000E+00
    -12.778  0.0000E+00  0.0000E+00
    -12.661  0.0000E+00  0.0000E+00
    -12.545  0.0000E+00  0.0000E+00
    -12.428  0.0000E+00  0.0000E+00
    -12.311  0.0000E+00  0.0000E+00
    -12.195  0.0000E+00  0.0000E+00
    -12.078  0.0000E+00  0.0000E+00
    -11.961  0.0000E+00  0.0000E+00
    -11.844  0.3488E-16  0.4071E-17
    -11.728  0.3464E-11  0.4043E-12
    -11.611  0.2408E-07  0.2811E-08
    -11.494  0.1231E-04  0.1439E-05
    -11.377  0.5115E-03  0.6115E-04
    -11.261  0.2067E-02  0.3024E-03
    -11.144  0.9351E-03  0.4116E-03
    -11.027  0.4372E-04  0.4167E-03
    -10.911  0.6963E-04  0.4248E-03
    -10.794  0.1145E-02  0.5585E-03
    -10.677  0.2115E-02  0.8054E-03
    -10.560  0.1885E-02  0.1025E-02
    -10.444  0.1711E-02  0.1225E-02
    -10.327  0.2106E-03  0.1250E-02
    -10.210  0.1523E-04  0.1252E-02
    -10.093  0.5228E-03  0.1313E-02
     -9.977  0.2072E-02  0.1554E-02
     -9.860  0.9253E-03  0.1662E-02
     -9.743  0.3782E-03  0.1707E-02
     -9.627  0.1925E-02  0.1931E-02
     -9.510  0.1221E-02  0.2074E-02
     -9.393  0.8161E-04  0.2083E-02
     -9.276  0.1391E-04  0.2085E-02
     -9.160  0.5429E-03  0.2148E-02
     -9.043  0.2497E-02  0.2440E-02
     -8.926  0.2914E-02  0.2780E-02
     -8.810  0.1113E-02  0.2910E-02
     -8.693  0.2010E-03  0.2933E-02
     -8.576  0.1500E-02  0.3108E-02
     -8.459  0.1711E-02  0.3308E-02
     -8.343  0.2164E-03  0.3333E-02
     -8.226  0.2390E-03  0.3361E-02
     -8.109  0.2097E-02  0.3606E-02
     -7.992  0.3392E-02  0.4002E-02
     -7.876  0.1340E-02  0.4158E-02
     -7.759  0.5183E-03  0.4219E-02
     -7.642  0.2327E-02  0.4491E-02
     -7.526  0.4004E-02  0.4958E-02
     -7.409  0.3700E-02  0.5390E-02
     -7.292  0.2253E-02  0.5653E-02
     -7.175  0.1520E-02  0.5830E-02
     -7.059  0.1418E-02  0.5996E-02
     -6.942  0.2144E-02  0.6246E-02
     -6.825  0.2760E-02  0.6568E-02
     -6.708  0.3710E-02  0.7001E-02
     -6.592  0.3114E-02  0.7364E-02
     -6.475  0.5378E-02  0.7992E-02
     -6.358  0.2724E-02  0.8310E-02
     -6.242  0.6757E-03  0.8389E-02
     -6.125  0.2055E-02  0.8629E-02
     -6.008  0.1463E-02  0.8800E-02
     -5.891  0.2395E-02  0.9079E-02
     -5.775  0.2893E-02  0.9417E-02
     -5.658  0.1417E-02  0.9582E-02
     -5.541  0.1327E-02  0.9737E-02
     -5.425  0.1916E-02  0.9961E-02
     -5.308  0.3295E-03  0.9999E-02
     -5.191  0.2568E-04  0.1000E-01
     -5.074  0.6572E-03  0.1008E-01
     -4.958  0.2107E-02  0.1033E-01
     -4.841  0.7578E-03  0.1041E-01
     -4.724  0.3683E-04  0.1042E-01
     -4.607  0.4463E-03  0.1047E-01
     -4.491  0.2035E-02  0.1071E-01
     -4.374  0.1512E-02  0.1088E-01
     -4.257  0.3631E-02  0.1131E-01
     -4.141  0.3746E-02  0.1174E-01
     -4.024  0.2332E-02  0.1202E-01
     -3.907  0.5528E-03  0.1208E-01
     -3.790  0.2732E-04  0.1208E-01
     -3.674  0.5280E-03  0.1215E-01
     -3.557  0.2168E-02  0.1240E-01
     -3.440  0.2505E-02  0.1269E-01
     -3.323  0.4127E-02  0.1317E-01
     -3.207  0.3416E-02  0.1357E-01
     -3.090  0.1743E-02  0.1378E-01
     -2.973  0.2005E-02  0.1401E-01
     -2.857  0.1260E-02  0.1416E-01
     -2.740  0.4041E-03  0.1420E-01
     -2.623  0.1910E-02  0.1443E-01
     -2.506  0.1876E-02  0.1465E-01
     -2.390  0.4454E-02  0.1517E-01
     -2.273  0.5555E-02  0.1581E-01
     -2.156  0.4764E-02  0.1637E-01
     -2.039  0.2430E-02  0.1665E-01
     -1.923  0.1102E-02  0.1678E-01
     -1.806  0.2063E-02  0.1702E-01
     -1.689  0.5005E-03  0.1708E-01
     -1.573  0.1182E-04  0.1708E-01
     -1.456  0.1143E-04  0.1708E-01
     -1.339  0.5986E-03  0.1715E-01
     -1.222  0.4464E-02  0.1768E-01
     -1.106  0.6969E-02  0.1849E-01
     -0.989  0.2140E-02  0.1874E-01
     -0.872  0.1109E-03  0.1875E-01
     -0.756  0.9128E-03  0.1886E-01
     -0.639  0.5803E-02  0.1954E-01
     -0.522  0.6041E-02  0.2024E-01
     -0.405  0.1505E-02  0.2042E-01
     -0.289  0.1157E-02  0.2055E-01
     -0.172  0.2002E-02  0.2079E-01
     -0.055  0.6826E-03  0.2087E-01
      0.062  0.2040E-02  0.2110E-01
      0.178  0.3032E-02  0.2146E-01
      0.295  0.1642E-02  0.2165E-01
      0.412  0.1695E-03  0.2167E-01
      0.528  0.6414E-03  0.2174E-01
      0.645  0.2982E-02  0.2209E-01
      0.762  0.3462E-02  0.2250E-01
      0.879  0.4081E-02  0.2297E-01
      0.995  0.4614E-02  0.2351E-01
      1.112  0.5933E-02  0.2420E-01
      1.229  0.3949E-02  0.2466E-01
      1.346  0.3052E-02  0.2502E-01
      1.462  0.2730E-02  0.2534E-01
      1.579  0.1947E-02  0.2557E-01
      1.696  0.2322E-02  0.2584E-01
      1.812  0.3519E-02  0.2625E-01
      1.929  0.5296E-02  0.2687E-01
      2.046  0.8932E-02  0.2791E-01
      2.163  0.9585E-02  0.2903E-01
      2.279  0.4209E-02  0.2952E-01
      2.396  0.2009E-02  0.2975E-01
      2.513  0.1853E-02  0.2997E-01
      2.630  0.7792E-03  0.3006E-01
      2.746  0.2113E-02  0.3031E-01
      2.863  0.2307E-02  0.3058E-01
      2.980  0.5997E-02  0.3128E-01
      3.096  0.6375E-02  0.3202E-01
      3.213  0.5686E-02  0.3268E-01
      3.330  0.6043E-02  0.3339E-01
      3.447  0.3442E-02  0.3379E-01
      3.563  0.2555E-02  0.3409E-01
      3.680  0.4372E-02  0.3460E-01
      3.797  0.8046E-02  0.3554E-01
      3.913  0.7898E-02  0.3646E-01
      4.030  0.6630E-02  0.3723E-01
      4.147  0.2164E-02  0.3749E-01
      4.264  0.9289E-03  0.3760E-01
      4.380  0.2109E-02  0.3784E-01
      4.497  0.1029E-02  0.3796E-01
      4.614  0.3289E-02  0.3835E-01
      4.731  0.3578E-02  0.3876E-01
      4.847  0.3509E-02  0.3917E-01
      4.964  0.4198E-02  0.3966E-01
      5.081  0.3265E-02  0.4004E-01
      5.197  0.2662E-02  0.4036E-01
      5.314  0.2928E-02  0.4070E-01
      5.431  0.6038E-02  0.4140E-01
      5.548  0.3539E-02  0.4181E-01
      5.664  0.1990E-02  0.4205E-01
      5.781  0.4498E-03  0.4210E-01
      5.898  0.1743E-02  0.4230E-01
      6.015  0.4742E-02  0.4286E-01
      6.131  0.5590E-02  0.4351E-01
      6.248  0.2572E-02  0.4381E-01
      6.365  0.3883E-02  0.4426E-01
      6.481  0.2561E-02  0.4456E-01
      6.598  0.4193E-03  0.4461E-01
      6.715  0.3188E-02  0.4498E-01
      6.832  0.6068E-02  0.4569E-01
      6.948  0.3686E-02  0.4612E-01
      7.065  0.3076E-02  0.4648E-01
      7.182  0.1919E-02  0.4670E-01
      7.298  0.3576E-02  0.4712E-01
      7.415  0.5252E-02  0.4773E-01
      7.532  0.7600E-02  0.4862E-01
      7.649  0.4125E-02  0.4910E-01
      7.765  0.6355E-03  0.4918E-01
      7.882  0.1424E-02  0.4934E-01
      7.999  0.3387E-02  0.4974E-01
      8.116  0.4315E-02  0.5024E-01
      8.232  0.3677E-02  0.5067E-01
      8.349  0.1309E-02  0.5082E-01
      8.466  0.7729E-04  0.5083E-01
      8.582  0.1288E-03  0.5085E-01
      8.699  0.1878E-02  0.5107E-01
      8.816  0.3838E-02  0.5152E-01
      8.933  0.1287E-02  0.5167E-01
      9.049  0.1012E-02  0.5178E-01
      9.166  0.2059E-02  0.5202E-01
      9.283  0.4955E-03  0.5208E-01
      9.400  0.1654E-03  0.5210E-01
      9.516  0.2124E-02  0.5235E-01
      9.633  0.3843E-02  0.5280E-01
      9.750  0.9869E-03  0.5291E-01
      9.866  0.3040E-04  0.5292E-01
      9.983  0.8663E-07  0.5292E-01
     10.100  0.1917E-10  0.5292E-01
     10.217  0.5142E-11  0.5292E-01
     10.333  0.3224E-07  0.5292E-01
     10.450  0.1491E-04  0.5292E-01
     10.567  0.5635E-03  0.5298E-01
     10.684  0.2088E-02  0.5323E-01
     10.800  0.8668E-03  0.5333E-01
     10.917  0.3662E-04  0.5333E-01
     11.034  0.1303E-06  0.5333E-01
     11.150  0.3470E-10  0.5333E-01
     11.267  0.6531E-15  0.5333E-01
     11.384  0.0000E+00  0.5333E-01
     11.501  0.0000E+00  0.5333E-01
     11.617  0.0000E+00  0.5333E-01
     11.734  0.0000E+00  0.5333E-01
     11.851  0.0000E+00  0.5333E-01
     11.967  0.0000E+00  0.5333E-01
     12.084  0.2940E-13  0.5333E-01
     12.201  0.6611E-09  0.5333E-01
     12.318  0.1065E-05  0.5333E-01
     12.434  0.1323E-03  0.5335E-01
     12.551  0.1465E-02  0.5352E-01
     12.668  0.1748E-02  0.5372E-01
     12.785  0.6194E-03  0.5380E-01
     12.901  0.2928E-02  0.5414E-01
     13.018  0.4392E-02  0.5465E-01
     13.135  0.3377E-02  0.5504E-01
     13.251  0.2524E-02  0.5534E-01
     13.368  0.7571E-03  0.5543E-01
     13.485  0.1404E-02  0.5559E-01
     13.602  0.1812E-02  0.5580E-01
     13.718  0.6861E-03  0.5588E-01
     13.835  0.4361E-02  0.5639E-01
     13.952  0.7529E-02  0.5727E-01
     14.069  0.5227E-02  0.5788E-01
     14.185  0.4345E-02  0.5839E-01
     14.302  0.2902E-02  0.5873E-01
     14.419  0.2935E-02  0.5907E-01
     14.535  0.5452E-02  0.5971E-01
     14.652  0.3475E-02  0.6011E-01
     14.769  0.3438E-02  0.6051E-01
     14.886  0.2400E-02  0.6079E-01
     15.002  0.8801E-03  0.6090E-01
     15.119  0.3074E-02  0.6125E-01
     15.236  0.5558E-02  0.6190E-01
     15.353  0.1036E-01  0.6311E-01
     15.469  0.7123E-02  0.6394E-01
     15.586  0.1852E-02  0.6416E-01
     15.703  0.1244E-02  0.6431E-01
     15.819  0.2226E-02  0.6457E-01
     15.936  0.3190E-02  0.6494E-01
     16.053  0.3589E-02  0.6536E-01
     16.170  0.9444E-03  0.6547E-01
     16.286  0.2060E-02  0.6571E-01
     16.403  0.2201E-02  0.6596E-01
     16.520  0.4261E-02  0.6646E-01
     16.636  0.4478E-02  0.6698E-01
     16.753  0.3935E-02  0.6744E-01
     16.870  0.2836E-02  0.6777E-01
     16.987  0.6266E-02  0.6851E-01
     17.103  0.4645E-02  0.6905E-01
     17.220  0.1164E-02  0.6918E-01
     17.337  0.2382E-02  0.6946E-01
     17.454  0.5539E-02  0.7011E-01
     17.570  0.3615E-02  0.7053E-01
     17.687  0.2182E-02  0.7079E-01
     17.804  0.8860E-03  0.7089E-01
     17.920  0.3107E-02  0.7125E-01
     18.037  0.3999E-02  0.7172E-01
     18.154  0.2733E-02  0.7204E-01
     18.271  0.2119E-02  0.7228E-01
     18.387  0.1737E-02  0.7249E-01
     18.504  0.1450E-02  0.7266E-01
     18.621  0.3771E-02  0.7310E-01
     18.738  0.7632E-02  0.7399E-01
     18.854  0.4869E-02  0.7456E-01
     18.971  0.2256E-02  0.7482E-01
     19.088  0.2011E-02  0.7505E-01
     19.204  0.2741E-02  0.7537E-01
     19.321  0.4338E-02  0.7588E-01
     19.438  0.4794E-02  0.7644E-01
     19.555  0.5672E-02  0.7710E-01
     19.671  0.6895E-02  0.7791E-01
     19.788  0.3258E-02  0.7829E-01
     19.905  0.3912E-03  0.7833E-01
     20.022  0.2158E-04  0.7834E-01
     20.138  0.5805E-03  0.7840E-01
     20.255  0.2437E-02  0.7869E-01
     20.372  0.3625E-02  0.7911E-01
     20.488  0.4336E-02  0.7962E-01
     20.605  0.2744E-02  0.7994E-01
     20.722  0.5282E-03  0.8000E-01
     20.839  0.1234E-04  0.8000E-01
     20.955  0.2409E-07  0.8000E-01
     21.072  0.3464E-11  0.8000E-01
     21.189  0.3488E-16  0.8000E-01
     21.305  0.0000E+00  0.8000E-01
     21.422  0.0000E+00  0.8000E-01
     21.539  0.0000E+00  0.8000E-01
     21.656  0.0000E+00  0.8000E-01
     21.772  0.0000E+00  0.8000E-01
     21.889  0.0000E+00  0.8000E-01
     22.006  0.0000E+00  0.8000E-01
     22.123  0.0000E+00  0.8000E-01
