    4    4  300    1
  0.5731718E+01  0.2701130E-09  0.2563919E-09  0.4180357E-09  0.5000000E-15
  1.000000000000000E-004
  CAR 
 unknown system                          
     16     16     12
 
  0.1250000E+00  0.1250000E+00  0.2500000E+00  0.6250000E-01
    1      -10.553819   1.000000
    2       -5.795317   1.000000
    3       -0.656999   1.000000
    4        1.955649   1.000000
    5        3.705075   1.000000
    6        6.118881   1.000000
    7        7.483152   1.000000
    8        9.525209   1.000000
    9       13.050153   0.000000
   10       14.689421   0.000000
   11       17.406995   0.000000
   12       19.286259   0.000000
 
  0.3750000E+00  0.1250000E+00  0.2500000E+00  0.6250000E-01
    1       -7.677531   1.000000
    2       -4.094619   1.000000
    3       -2.383827   1.000000
    4        0.045307   1.000000
    5        1.404208   1.000000
    6        2.004161   1.000000
    7        6.039011   1.000000
    8        7.464586   1.000000
    9       14.793847   0.000000
   10       16.251853   0.000000
   11       16.453345   0.000000
   12       19.340782   0.000000
 
 -0.3750000E+00  0.1250000E+00  0.2500000E+00  0.6250000E-01
    1       -8.119062   1.000000
    2       -7.501058   1.000000
    3       -0.678423   1.000000
    4        2.130754   1.000000
    5        3.337542   1.000000
    6        4.626047   1.000000
    7        6.017744   1.000000
    8        6.335530   1.000000
    9       13.499172   0.000000
   10       16.497118   0.000000
   11       17.603020   0.000000
   12       18.666794   0.000000
 
 -0.1250000E+00  0.1250000E+00  0.2500000E+00  0.6250000E-01
    1      -10.764701   1.000000
    2       -8.018058   1.000000
    3        1.121386   1.000000
    4        3.809710   1.000000
    5        5.396650   1.000000
    6        7.051934   1.000000
    7        7.900487   1.000000
    8        8.777018   1.000000
    9       14.211535   0.000000
   10       14.423999   0.000000
   11       16.897160   0.000000
   12       17.955353   0.000000
 
  0.1250000E+00  0.3750000E+00  0.2500000E+00  0.6250000E-01
    1       -7.038724   1.000000
    2       -4.270979   1.000000
    3       -2.338859   1.000000
    4        0.173476   1.000000
    5        2.041153   1.000000
    6        3.089753   1.000000
    7        3.715727   1.000000
    8        6.744228   1.000000
    9       12.560404   0.000000
   10       15.346610   0.000000
   11       18.273035   0.000000
   12       20.420552   0.000000
 
  0.3750000E+00  0.3750000E+00  0.2500000E+00  0.6250000E-01
    1       -6.163264   1.000000
    2       -5.012210   1.000000
    3       -2.187297   1.000000
    4       -0.555727   1.000000
    5        1.603580   1.000000
    6        2.703973   1.000000
    7        3.885617   1.000000
    8        5.905206   1.000000
    9       14.534924   0.000000
   10       16.661101   0.000000
   11       19.696973   0.000000
   12       20.350413   0.000000
 
 -0.3750000E+00  0.3750000E+00  0.2500000E+00  0.6250000E-01
    1       -7.534354   1.000000
    2       -6.837353   1.000000
    3       -2.425009   1.000000
    4        2.069640   1.000000
    5        3.238470   1.000000
    6        4.018718   1.000000
    7        6.352226   1.000000
    8        6.924256   1.000000
    9       13.187665   0.000000
   10       15.335506   0.000000
   11       15.940436   0.000000
   12       19.556863   0.000000
 
 -0.1250000E+00  0.3750000E+00  0.2500000E+00  0.6250000E-01
    1       -8.568982   1.000000
    2       -5.929107   1.000000
    3       -0.630208   1.000000
    4        1.030799   1.000000
    5        2.964040   1.000000
    6        3.956915   1.000000
    7        5.568397   1.000000
    8        7.469078   1.000000
    9       14.023408   0.000000
   10       15.332947   0.000000
   11       17.050599   0.000000
   12       18.760713   0.000000
 
  0.1250000E+00 -0.3750000E+00  0.2500000E+00  0.6250000E-01
    1       -9.087464   1.000000
    2       -4.526992   1.000000
    3       -1.196459   1.000000
    4        1.063356   1.000000
    5        1.835921   1.000000
    6        4.596550   1.000000
    7        4.998226   1.000000
    8        8.019796   1.000000
    9       12.944606   0.000000
   10       15.294749   0.000000
   11       18.689979   0.000000
   12       19.443064   0.000000
 
  0.3750000E+00 -0.3750000E+00  0.2500000E+00  0.6250000E-01
    1       -8.959929   1.000000
    2       -3.346195   1.000000
    3       -2.178698   1.000000
    4       -0.256324   1.000000
    5        0.892504   1.000000
    6        3.708395   1.000000
    7        6.788758   1.000000
    8        8.712223   1.000000
    9       13.886056   0.000000
   10       15.271987   0.000000
   11       17.444335   0.000000
   12       19.626166   0.000000
 
 -0.3750000E+00 -0.3750000E+00  0.2500000E+00  0.6250000E-01
    1       -6.515223   1.000000
    2       -3.600773   1.000000
    3       -2.645085   1.000000
    4       -1.174485   1.000000
    5        0.842764   1.000000
    6        2.411763   1.000000
    7        3.276733   1.000000
    8        8.205595   1.000000
    9       14.466751   0.000000
   10       18.529463   0.000000
   11       18.718065   0.000000
   12       20.206933   0.000000
 
 -0.1250000E+00 -0.3750000E+00  0.2500000E+00  0.6250000E-01
    1       -6.589681   1.000000
    2       -4.266274   1.000000
    3       -2.995627   1.000000
    4       -1.261893   1.000000
    5        2.910095   1.000000
    6        3.122710   1.000000
    7        5.132978   1.000000
    8        6.720361   1.000000
    9       13.840422   0.000000
   10       15.162088   0.000000
   11       16.649429   0.000000
   12       19.157486   0.000000
 
  0.1250000E+00 -0.1250000E+00  0.2500000E+00  0.6250000E-01
    1      -11.303190   1.000000
    2       -6.478305   1.000000
    3       -1.133358   1.000000
    4        3.897006   1.000000
    5        4.878298   1.000000
    6        7.303386   1.000000
    7        9.090254   1.000000
    8       10.636517   1.000000
    9       12.875280   0.000000
   10       13.941626   0.000000
   11       16.915729   0.000000
   12       17.887163   0.000000
 
  0.3750000E+00 -0.1250000E+00  0.2500000E+00  0.6250000E-01
    1       -9.650984   1.000000
    2       -3.418437   1.000000
    3       -1.881313   1.000000
    4        0.691732   1.000000
    5        1.794395   1.000000
    6        2.969576   1.000000
    7        5.387332   1.000000
    8        9.578700   1.000000
    9       15.456259   0.000000
   10       15.958363   0.000000
   11       18.959668   0.000000
   12       19.565613   0.000000
 
 -0.3750000E+00 -0.1250000E+00  0.2500000E+00  0.6250000E-01
    1       -6.764641   1.000000
    2       -5.517687   1.000000
    3       -3.224275   1.000000
    4        0.594912   1.000000
    5        2.210128   1.000000
    6        3.514043   1.000000
    7        4.816198   1.000000
    8        7.570071   1.000000
    9       13.823272   0.000000
   10       15.733233   0.000000
   11       17.339678   0.000000
   12       20.530846   0.000000
 
 -0.1250000E+00 -0.1250000E+00  0.2500000E+00  0.6250000E-01
    1      -10.020232   1.000000
    2       -7.304297   1.000000
    3        1.273541   1.000000
    4        2.074932   1.000000
    5        4.315869   1.000000
    6        5.331141   1.000000
    7        7.281121   1.000000
    8        8.103216   1.000000
    9       14.128729   0.000000
   10       15.078931   0.000000
   11       16.988072   0.000000
   12       18.081883   0.000000
