 vasp.6.2.1 16May21 (build Oct 21 2023 21:03:18) complex                        
  
 executed on             LinuxIFC date 2024.04.26  16:24:25
 running on    1 total cores
 distrk:  each k-point on    1 cores,    1 groups
 distr:  one band on NCORE=   1 cores,    1 groups


--------------------------------------------------------------------------------------------------------


 INCAR:
   PREC = accurate
   ENCUT = 600
   EDIFF = 1e-06
   EDIFFG = 1e-05
   IBRION = 2
   ISIF = 2
   ISYM = 2
   ISMEAR = 0
   SIGMA = 0.1
   LREAL = False
   NPAR = 11
   NSW = 300
   ISTART = 0
   LCHARG = False
   LPLANE = False
   LWAVE = False

 POTCAR:    PAW_PBE C 08Apr2002                   
 -----------------------------------------------------------------------------
|                                                                             |
|           W    W    AA    RRRRR   N    N  II  N    N   GGGG   !!!           |
|           W    W   A  A   R    R  NN   N  II  NN   N  G    G  !!!           |
|           W    W  A    A  R    R  N N  N  II  N N  N  G       !!!           |
|           W WW W  AAAAAA  RRRRR   N  N N  II  N  N N  G  GGG   !            |
|           WW  WW  A    A  R   R   N   NN  II  N   NN  G    G                |
|           W    W  A    A  R    R  N    N  II  N    N   GGGG   !!!           |
|                                                                             |
|     The value NPAR = 11 specified in the INCAR file was overwritten,        |
|     because it was not compatible with the 1 processes available:           |
|     NPAR = 1                                                                |
|     was used instead, please check that this makes sense for your           |
|     machine.                                                                |
|                                                                             |
 -----------------------------------------------------------------------------

 POTCAR:    PAW_PBE C 08Apr2002                   
   SHA256 =  253f7b50bb8d59471dbedb8285d89021f4a42ed1a2c5d38a03a736e69125dd95 C/POTCAR              
   COPYR  = (c) Copyright 08Apr2002 Georg Kresse                                                    
   COPYR  = This file is part of the software VASP. Any use, copying, and all other rights are regul
   COPYR  = If you do not have a valid VASP license, you may not use, copy or distribute this file. 
   VRHFIN =C: s2p2                                                                                  
   LEXCH  = PE                                                                                      
   EATOM  =   147.1560 eV,   10.8157 Ry                                                             
                                                                                                    
   TITEL  = PAW_PBE C 08Apr2002                                                                     
   LULTRA =        F    use ultrasoft PP ?                                                          
   IUNSCR =        1    unscreen: 0-lin 1-nonlin 2-no                                               
   RPACOR =    1.200    partial core radius                                                         
   POMASS =   12.011; ZVAL   =    4.000    mass and valenz                                          
   RCORE  =    1.500    outmost cutoff radius                                                       
   RWIGS  =    1.630; RWIGS  =    0.863    wigner-seitz radius (au A)                               
   ENMAX  =  400.000; ENMIN  =  300.000 eV                                                          
   ICORE  =        2    local potential                                                             
   LCOR   =        T    correct aug charges                                                         
   LPAW   =        T    paw PP                                                                      
   EAUG   =  644.873                                                                                
   DEXC   =    0.000                                                                                
   RMAX   =    1.529    core radius for proj-oper                                                   
   RAUG   =    1.300    factor for augmentation sphere                                              
   RDEP   =    1.501    radius for radial grids                                                     
   RDEPT  =    1.300    core radius for aug-charge                                                  
                                                                                                    
   Atomic configuration                                                                             
    4 entries                                                                                       
     n  l   j            E        occ.                                                              
     1  0  0.50      -273.3789   2.0000                                                             
     2  0  0.50       -13.7508   2.0000                                                             
     2  1  0.50        -5.2854   2.0000                                                             
     3  2  1.50        -5.4423   0.0000                                                             
   Description                                                                                      
     l       E           TYP  RCUT    TYP  RCUT                                                     
     0    -13.7508458     23  1.200                                                                 
     0     -8.2022199     23  1.200                                                                 
     1     -5.2854383     23  1.500                                                                 
     1     34.0145650     23  1.500                                                                 
     2     -5.4423304      7  1.500                                                                 
  local pseudopotential read in
  partial core-charges read in
  partial kinetic energy density read in
  atomic valenz-charges read in
  non local Contribution for L=           0  read in
    real space projection operators read in
  non local Contribution for L=           0  read in
    real space projection operators read in
  non local Contribution for L=           1  read in
    real space projection operators read in
  non local Contribution for L=           1  read in
    real space projection operators read in
    PAW grid and wavefunctions read in
 
   number of l-projection  operators is LMAX  =           4
   number of lm-projection operators is LMMAX =           8
 
  PAW_PBE C 08Apr2002                   :
 energy of atom  1       EATOM= -147.1560
 kinetic energy error for atom=    0.0057 (will be added to EATOM!!)
 
 
 POSCAR:  C
  positions in direct lattice
  No initial velocities read in
 exchange correlation table for  LEXCH =        8
   RHO(1)=    0.500       N(1)  =     2000
   RHO(2)=  100.500       N(2)  =     4000
 


--------------------------------------------------------------------------------------------------------


 ion  position               nearest neighbor table
   1  0.333  0.667  0.062-   2 1.45   2 1.54   4 1.57   2 1.77
   2  0.667  0.333  0.938-   1 1.45   1 1.54   3 1.57   1 1.77
   3  0.667  0.333  0.562-   4 1.45   4 1.54   2 1.57   4 1.77
   4  0.333  0.667  0.438-   3 1.45   3 1.54   1 1.57   3 1.77
 
  LATTYP: Found a base centered monoclinic cell.
 ALAT       =     2.7011299643
 B/A-ratio  =     1.6136730245
 C/A-ratio  =     1.5068234451
 COS(beta)  =    -0.2904620131
  
  Lattice vectors:
  
 A1 = (   1.2582600176,  -2.1793702796,   0.4907214069)
 A2 = (   1.2582600176,   2.1793702796,   0.4907214069)
 A3 = (  -2.5165200352,   0.0000000000,   3.1989142269)


Analysis of symmetry for initial positions (statically):
=====================================================================
 Subroutine PRICEL returns:
 Original cell was already a primitive cell.
 

 Routine SETGRP: Setting up the symmetry group for a 
 base centered monoclinic supercell.


 Subroutine GETGRP returns: Found  4 space group operations
 (whereof  2 operations were pure point group operations)
 out of a pool of  4 trial point group operations.


The static configuration has the point symmetry S_2 .
 The point group associated with its full space group is C_2h.


Analysis of symmetry for dynamics (positions and initial velocities):
=====================================================================
 Subroutine PRICEL returns:
 Original cell was already a primitive cell.
 

 Routine SETGRP: Setting up the symmetry group for a 
 base centered monoclinic supercell.


 Subroutine GETGRP returns: Found  4 space group operations
 (whereof  2 operations were pure point group operations)
 out of a pool of  4 trial point group operations.


The dynamic configuration has the point symmetry S_2 .
 The point group associated with its full space group is C_2h.


Analysis of constrained symmetry for selective dynamics:
=====================================================================
 Subroutine PRICEL returns:
 Original cell was already a primitive cell.
 

 Routine SETGRP: Setting up the symmetry group for a 
 base centered monoclinic supercell.


 Subroutine GETGRP returns: Found  4 space group operations
 (whereof  2 operations were pure point group operations)
 out of a pool of  4 trial point group operations.


The constrained configuration has the point symmetry S_2 .
 The point group associated with its full space group is C_2h.


 Subroutine INISYM returns: Found  4 space group operations
 (whereof  2 operations are pure point group operations),
 and found     1 'primitive' translations


----------------------------------------------------------------------------------------

                                     Primitive cell                                     

  volume of cell :      22.9269

  direct lattice vectors                    reciprocal lattice vectors
     2.516520035  0.000000000  0.981442814     0.397374146  0.229424070  0.000000000
    -1.258260018  2.179370280 -0.490721407     0.000000000  0.458848140  0.000000000
     0.000000000  0.000000000  4.180357041    -0.093293467  0.000000000  0.239214017

  length of vectors
     2.701129964  2.563918990  4.180357041     0.458848140  0.458848140  0.256762569

  position of ions in fractional coordinates (direct lattice)
     0.333333333  0.666666667  0.062193776
     0.666666667  0.333333333  0.937806224
     0.666666667  0.333333333  0.562193776
     0.333333333  0.666666667  0.437806224

  ion indices of the primitive-cell ions
   primitive index   ion index
                 1           1
                 2           2
                 3           3
                 4           4

----------------------------------------------------------------------------------------

 
 
 KPOINTS: KPOINTS created by Atomic Simulation Env

Automatic generation of k-mesh.
 Grid dimensions read from file:
 generate k-points for:    4    4    2

 Generating k-lattice:

  Cartesian coordinates                     Fractional coordinates (reciprocal lattice)
     0.099343537  0.057356018  0.000000000     0.250000000 -0.000000000  0.000000000
     0.000000000  0.114712035  0.000000000     0.000000000  0.250000000  0.000000000
    -0.046646733  0.000000000  0.119607008     0.000000000 -0.000000000  0.500000000

  Length of vectors
     0.114712035  0.114712035  0.128381284

  Shift w.r.t. Gamma in fractional coordinates (k-lattice)
     0.500000000  0.500000000  0.500000000

 
 Subroutine IBZKPT returns following result:
 ===========================================
 
 Found     16 irreducible k-points:
 
 Following reciprocal coordinates:
            Coordinates               Weight
  0.125000  0.125000  0.250000      4.000000
  0.375000  0.125000  0.250000      4.000000
 -0.375000  0.125000  0.250000      4.000000
 -0.125000  0.125000  0.250000      4.000000
  0.125000  0.375000  0.250000      4.000000
  0.375000  0.375000  0.250000      4.000000
 -0.375000  0.375000  0.250000      4.000000
 -0.125000  0.375000  0.250000      4.000000
  0.125000 -0.375000  0.250000      4.000000
  0.375000 -0.375000  0.250000      4.000000
 -0.375000 -0.375000  0.250000      4.000000
 -0.125000 -0.375000  0.250000      4.000000
  0.125000 -0.125000  0.250000      4.000000
  0.375000 -0.125000  0.250000      4.000000
 -0.375000 -0.125000  0.250000      4.000000
 -0.125000 -0.125000  0.250000      4.000000
 
 Following cartesian coordinates:
            Coordinates               Weight
  0.026348  0.086034  0.059804      4.000000
  0.125692  0.143390  0.059804      4.000000
 -0.172339 -0.028678  0.059804      4.000000
 -0.072995  0.028678  0.059804      4.000000
  0.026348  0.200746  0.059804      4.000000
  0.125692  0.258102  0.059804      4.000000
 -0.172339  0.086034  0.059804      4.000000
 -0.072995  0.143390  0.059804      4.000000
  0.026348 -0.143390  0.059804      4.000000
  0.125692 -0.086034  0.059804      4.000000
 -0.172339 -0.258102  0.059804      4.000000
 -0.072995 -0.200746  0.059804      4.000000
  0.026348 -0.028678  0.059804      4.000000
  0.125692  0.028678  0.059804      4.000000
 -0.172339 -0.143390  0.059804      4.000000
 -0.072995 -0.086034  0.059804      4.000000
 


--------------------------------------------------------------------------------------------------------




 Dimension of arrays:
   k-points           NKPTS =     16   k-points in BZ     NKDIM =     16   number of bands    NBANDS=     12
   number of dos      NEDOS =    301   number of ions     NIONS =      4
   non local maximal  LDIM  =      4   non local SUM 2l+1 LMDIM =      8
   total plane-waves  NPLWV =  17280
   max r-space proj   IRMAX =      1   max aug-charges    IRDMAX=   9093
   dimension x,y,z NGX =    24 NGY =   20 NGZ =   36
   dimension x,y,z NGXF=    48 NGYF=   40 NGZF=   72
   support grid    NGXF=    48 NGYF=   40 NGZF=   72
   ions per type =               4
   NGX,Y,Z   is equivalent  to a cutoff of  14.77, 12.97, 14.32 a.u.
   NGXF,Y,Z  is equivalent  to a cutoff of  29.54, 25.94, 28.63 a.u.

 SYSTEM =  unknown system                          
 POSCAR =   C                                      

 Startparameter for this run:
   NWRITE =      2    write-flag & timer
   PREC   = accura    normal or accurate (medium, high low for compatibility)
   ISTART =      0    job   : 0-new  1-cont  2-samecut
   ICHARG =      2    charge: 1-file 2-atom 10-const
   ISPIN  =      1    spin polarized calculation?
   LNONCOLLINEAR =      F non collinear calculations
   LSORBIT =      F    spin-orbit coupling
   INIWAV =      1    electr: 0-lowe 1-rand  2-diag
   LASPH  =      F    aspherical Exc in radial PAW
 Electronic Relaxation 1
   ENCUT  =  600.0 eV  44.10 Ry    6.64 a.u.   5.39  5.12  8.35*2*pi/ulx,y,z
   ENINI  =  600.0     initial cutoff
   ENAUG  =  644.9 eV  augmentation charge cutoff
   NELM   =     60;   NELMIN=  2; NELMDL= -5     # of ELM steps 
   EDIFF  = 0.1E-05   stopping-criterion for ELM
   LREAL  =      F    real-space projection
   NLSPLINE    = F    spline interpolate recip. space projectors
   LCOMPAT=      F    compatible to vasp.4.4
   GGA_COMPAT  = T    GGA compatible to vasp.4.4-vasp.4.6
   LMAXPAW     = -100 max onsite density
   LMAXMIX     =    2 max onsite mixed and CHGCAR
   VOSKOWN=      0    Vosko Wilk Nusair interpolation
   ROPT   =    0.00000
 Ionic relaxation
   EDIFFG = 0.1E-04   stopping-criterion for IOM
   NSW    =    300    number of steps for IOM
   NBLOCK =      1;   KBLOCK =    300    inner block; outer block 
   IBRION =      2    ionic relax: 0-MD 1-quasi-New 2-CG
   NFREE  =      1    steps in history (QN), initial steepest desc. (CG)
   ISIF   =      2    stress and relaxation
   IWAVPR =     11    prediction:  0-non 1-charg 2-wave 3-comb
   ISYM   =      2    0-nonsym 1-usesym 2-fastsym
   LCORR  =      T    Harris-Foulkes like correction to forces

   POTIM  = 0.5000    time-step for ionic-motion
   TEIN   =    0.0    initial temperature
   TEBEG  =    0.0;   TEEND  =   0.0 temperature during run
   SMASS  =  -3.00    Nose mass-parameter (am)
   estimated Nose-frequenzy (Omega)   =  0.10E-29 period in steps = 0.13E+47 mass=  -0.167E-27a.u.
   SCALEE = 1.0000    scale energy and forces
   NPACO  =    256;   APACO  = 16.0  distance and # of slots for P.C.
   PSTRESS=    0.0 pullay stress

  Mass of Ions in am
   POMASS =  12.01
  Ionic Valenz
   ZVAL   =   4.00
  Atomic Wigner-Seitz radii
   RWIGS  =  -1.00
  virtual crystal weights 
   VCA    =   1.00
   NELECT =      16.0000    total number of electrons
   NUPDOWN=      -1.0000    fix difference up-down

 DOS related values:
   EMIN   =  10.00;   EMAX   =-10.00  energy-range for DOS
   EFERMI =   0.00
   ISMEAR =     0;   SIGMA  =   0.10  broadening in eV -4-tet -1-fermi 0-gaus

 Electronic relaxation 2 (details)
   IALGO  =     38    algorithm
   LDIAG  =      T    sub-space diagonalisation (order eigenvalues)
   LSUBROT=      F    optimize rotation matrix (better conditioning)
   TURBO    =      0    0=normal 1=particle mesh
   IRESTART =      0    0=no restart 2=restart with 2 vectors
   NREBOOT  =      0    no. of reboots
   NMIN     =      0    reboot dimension
   EREF     =   0.00    reference energy to select bands
   IMIX   =      4    mixing-type and parameters
     AMIX     =   0.40;   BMIX     =  1.00
     AMIX_MAG =   1.60;   BMIX_MAG =  1.00
     AMIN     =   0.10
     WC   =   100.;   INIMIX=   1;  MIXPRE=   1;  MAXMIX= -45

 Intra band minimization:
   WEIMIN = 0.0010     energy-eigenvalue tresh-hold
   EBREAK =  0.21E-07  absolut break condition
   DEPER  =   0.30     relativ break condition  

   TIME   =   0.40     timestep for ELM

  volume/ion in A,a.u.               =       5.73        38.68
  Fermi-wavevector in a.u.,A,eV,Ry     =   1.452111  2.744092 28.689614  2.108627
  Thomas-Fermi vector in A             =   2.569531
 
 Write flags
   LWAVE        =      F    write WAVECAR
   LDOWNSAMPLE  =      F    k-point downsampling of WAVECAR
   LCHARG       =      F    write CHGCAR
   LVTOT        =      F    write LOCPOT, total local potential
   LVHAR        =      F    write LOCPOT, Hartree potential only
   LELF         =      F    write electronic localiz. function (ELF)
   LORBIT       =      0    0 simple, 1 ext, 2 COOP (PROOUT), +10 PAW based schemes


 Dipole corrections
   LMONO  =      F    monopole corrections only (constant potential shift)
   LDIPOL =      F    correct potential (dipole corrections)
   IDIPOL =      0    1-x, 2-y, 3-z, 4-all directions 
   EPSILON=  1.0000000 bulk dielectric constant

 Exchange correlation treatment:
   GGA     =    --    GGA type
   LEXCH   =     8    internal setting for exchange type
   VOSKOWN=      0    Vosko Wilk Nusair interpolation
   LHFCALC =     F    Hartree Fock is set to
   LHFONE  =     F    Hartree Fock one center treatment
   AEXX    =    0.0000 exact exchange contribution

 Linear response parameters
   LEPSILON=     F    determine dielectric tensor
   LRPA    =     F    only Hartree local field effects (RPA)
   LNABLA  =     F    use nabla operator in PAW spheres
   LVEL    =     F    velocity operator in full k-point grid
   LINTERFAST=   F  fast interpolation
   KINTER  =     0    interpolate to denser k-point grid
   CSHIFT  =0.1000    complex shift for real part using Kramers Kronig
   OMEGAMAX=  -1.0    maximum frequency
   DEG_THRESHOLD= 0.2000000E-02 threshold for treating states as degnerate
   RTIME   =   -0.100 relaxation time in fs
  (WPLASMAI=    0.000 imaginary part of plasma frequency in eV, 0.658/RTIME)
   DFIELD  = 0.0000000 0.0000000 0.0000000 field for delta impulse in time
 
 Orbital magnetization related:
   ORBITALMAG=     F  switch on orbital magnetization
   LCHIMAG   =     F  perturbation theory with respect to B field
   DQ        =  0.001000  dq finite difference perturbation B field
   LLRAUG    =     F  two centre corrections for induced B field



--------------------------------------------------------------------------------------------------------


 conjugate gradient relaxation of ions
   using selective dynamics as specified on POSCAR
 charge density and potential will be updated during run
 non-spin polarized calculation
 Variant of blocked Davidson
 Davidson routine will perform the subspace rotation
 perform sub-space diagonalisation
    after iterative eigenvector-optimisation
 modified Broyden-mixing scheme, WC =      100.0
 initial mixing is a Kerker type mixing with AMIX =  0.4000 and BMIX =      1.0000
 Hartree-type preconditioning will be used
 using additional bands            4
 reciprocal scheme for non local part
 use partial core corrections
 calculate Harris-corrections to forces 
   (improved forces if not selfconsistent)
 use gradient corrections 
 use of overlap-Matrix (Vanderbilt PP)
 Gauss-broadening in eV      SIGMA  =   0.10


--------------------------------------------------------------------------------------------------------


  energy-cutoff  :      600.00
  volume of cell :       22.93
      direct lattice vectors                 reciprocal lattice vectors
     2.516520035  0.000000000  0.981442814     0.397374146  0.229424070  0.000000000
    -1.258260018  2.179370280 -0.490721407     0.000000000  0.458848140  0.000000000
     0.000000000  0.000000000  4.180357041    -0.093293467  0.000000000  0.239214017

  length of vectors
     2.701129964  2.563918990  4.180357041     0.458848140  0.458848140  0.256762569


 
 k-points in units of 2pi/SCALE and weight: KPOINTS created by Atomic Simulation Env
   0.02634840  0.08603403  0.05980350       0.062
   0.12569194  0.14339004  0.05980350       0.062
  -0.17233867 -0.02867801  0.05980350       0.062
  -0.07299513  0.02867801  0.05980350       0.062
   0.02634840  0.20074606  0.05980350       0.062
   0.12569194  0.25810208  0.05980350       0.062
  -0.17233867  0.08603403  0.05980350       0.062
  -0.07299513  0.14339004  0.05980350       0.062
   0.02634840 -0.14339004  0.05980350       0.062
   0.12569194 -0.08603403  0.05980350       0.062
  -0.17233867 -0.25810208  0.05980350       0.062
  -0.07299513 -0.20074606  0.05980350       0.062
   0.02634840 -0.02867801  0.05980350       0.062
   0.12569194  0.02867801  0.05980350       0.062
  -0.17233867 -0.14339004  0.05980350       0.062
  -0.07299513 -0.08603403  0.05980350       0.062
 
 k-points in reciprocal lattice and weights: KPOINTS created by Atomic Simulation Env
   0.12500000  0.12500000  0.25000000       0.062
   0.37500000  0.12500000  0.25000000       0.062
  -0.37500000  0.12500000  0.25000000       0.062
  -0.12500000  0.12500000  0.25000000       0.062
   0.12500000  0.37500000  0.25000000       0.062
   0.37500000  0.37500000  0.25000000       0.062
  -0.37500000  0.37500000  0.25000000       0.062
  -0.12500000  0.37500000  0.25000000       0.062
   0.12500000 -0.37500000  0.25000000       0.062
   0.37500000 -0.37500000  0.25000000       0.062
  -0.37500000 -0.37500000  0.25000000       0.062
  -0.12500000 -0.37500000  0.25000000       0.062
   0.12500000 -0.12500000  0.25000000       0.062
   0.37500000 -0.12500000  0.25000000       0.062
  -0.37500000 -0.12500000  0.25000000       0.062
  -0.12500000 -0.12500000  0.25000000       0.062
 
 position of ions in fractional coordinates (direct lattice) 
   0.33333333  0.66666667  0.06219378
   0.66666667  0.33333333  0.93780622
   0.66666667  0.33333333  0.56219378
   0.33333333  0.66666667  0.43780622
 
 position of ions in cartesian coordinates  (Angst):
   0.00000000  1.45291352  0.25999219
   1.25826002  0.72645676  4.41108626
   1.25826002  0.72645676  2.84089212
   0.00000000  1.45291352  1.83018633
 


--------------------------------------------------------------------------------------------------------


 k-point   1 :   0.1250 0.1250 0.2500  plane waves:     761
 k-point   2 :   0.3750 0.1250 0.2500  plane waves:     764
 k-point   3 :  -0.3750 0.1250 0.2500  plane waves:     764
 k-point   4 :  -0.1250 0.1250 0.2500  plane waves:     767
 k-point   5 :   0.1250 0.3750 0.2500  plane waves:     771
 k-point   6 :   0.3750 0.3750 0.2500  plane waves:     766
 k-point   7 :  -0.3750 0.3750 0.2500  plane waves:     765
 k-point   8 :  -0.1250 0.3750 0.2500  plane waves:     770
 k-point   9 :   0.1250-0.3750 0.2500  plane waves:     764
 k-point  10 :   0.3750-0.3750 0.2500  plane waves:     762
 k-point  11 :  -0.3750-0.3750 0.2500  plane waves:     759
 k-point  12 :  -0.1250-0.3750 0.2500  plane waves:     778
 k-point  13 :   0.1250-0.1250 0.2500  plane waves:     756
 k-point  14 :   0.3750-0.1250 0.2500  plane waves:     757
 k-point  15 :  -0.3750-0.1250 0.2500  plane waves:     762
 k-point  16 :  -0.1250-0.1250 0.2500  plane waves:     760

 maximum and minimum number of plane-waves per node :       778      756

 maximum number of plane-waves:       778
 maximum index in each direction: 
   IXMAX=    5   IYMAX=    5   IZMAX=    8
   IXMIN=   -5   IYMIN=   -5   IZMIN=   -8


 serial   3D FFT for wavefunctions
 parallel 3D FFT for charge:
    minimum data exchange during FFTs selected (reduces bandwidth)


 total amount of memory used by VASP MPI-rank0    45639. kBytes
=======================================================================

   base      :      30000. kBytes
   nonl-proj :        846. kBytes
   fftplans  :       4836. kBytes
   grid      :       7457. kBytes
   one-center:         12. kBytes
   wavefun   :       2488. kBytes
 
     INWAV:  cpu time    0.0000: real time    0.0000
 Broyden mixing: mesh for mixing (old mesh)
   NGX = 11   NGY = 11   NGZ = 17
  (NGX  = 48   NGY  = 40   NGZ  = 72)
  gives a total of   2057 points

 initial charge density was supplied:
 charge density of overlapping atoms calculated
 number of electron      16.0000000 magnetization 
 keeping initial charge density in first step


--------------------------------------------------------------------------------------------------------


 Maximum index for augmentation-charges         8647 (set IRDMAX)


--------------------------------------------------------------------------------------------------------


 First call to EWALD:  gamma=   0.624
 Maximum number of real-space cells 3x 3x 2
 Maximum number of reciprocal cells 3x 3x 4

    FEWALD:  cpu time    0.0005: real time    0.0005


--------------------------------------- Iteration      1(   1)  ---------------------------------------


    POTLOK:  cpu time    0.0229: real time    0.0229
    SETDIJ:  cpu time    0.0021: real time    0.0021
     EDDAV:  cpu time    0.1296: real time    0.1296
       DOS:  cpu time    0.0002: real time    0.0002
    --------------------------------------------
      LOOP:  cpu time    0.1549: real time    0.1549

 eigenvalue-minimisations  :   384
 total energy-change (2. order) : 0.3882300E+02  (-0.9367845E+03)
 number of electron      16.0000000 magnetization 
 augmentation part       16.0000000 magnetization 

 Free energy of the ion-electron system (eV)
  ---------------------------------------------------
  alpha Z        PSCENC =        57.32781593
  Ewald energy   TEWEN  =      -694.65287063
  -Hartree energ DENC   =       -35.52476200
  -exchange      EXHF   =         0.00000000
  -V(xc)+E(xc)   XCENC  =        54.61113475
  PAW double counting   =       434.08818552     -436.36580876
  entropy T*S    EENTRO =        -0.00734029
  eigenvalues    EBANDS =        70.74549802
  atomic energy  EATOM  =       588.60115103
  Solvation  Ediel_sol  =         0.00000000
  ---------------------------------------------------
  free energy    TOTEN  =        38.82300357 eV

  energy without entropy =       38.83034387  energy(sigma->0) =       38.82667372


--------------------------------------------------------------------------------------------------------




--------------------------------------- Iteration      1(   2)  ---------------------------------------


     EDDAV:  cpu time    0.1818: real time    0.1818
       DOS:  cpu time    0.0001: real time    0.0001
    --------------------------------------------
      LOOP:  cpu time    0.1819: real time    0.1819

 eigenvalue-minimisations  :   556
 total energy-change (2. order) :-0.6934125E+02  (-0.6286482E+02)
 number of electron      16.0000000 magnetization 
 augmentation part       16.0000000 magnetization 

 Free energy of the ion-electron system (eV)
  ---------------------------------------------------
  alpha Z        PSCENC =        57.32781593
  Ewald energy   TEWEN  =      -694.65287063
  -Hartree energ DENC   =       -35.52476200
  -exchange      EXHF   =         0.00000000
  -V(xc)+E(xc)   XCENC  =        54.61113475
  PAW double counting   =       434.08818552     -436.36580876
  entropy T*S    EENTRO =        -0.00000000
  eigenvalues    EBANDS =         1.39690861
  atomic energy  EATOM  =       588.60115103
  Solvation  Ediel_sol  =         0.00000000
  ---------------------------------------------------
  free energy    TOTEN  =       -30.51824554 eV

  energy without entropy =      -30.51824554  energy(sigma->0) =      -30.51824554


--------------------------------------------------------------------------------------------------------




--------------------------------------- Iteration      1(   3)  ---------------------------------------


     EDDAV:  cpu time    0.1737: real time    0.1737
       DOS:  cpu time    0.0001: real time    0.0001
    --------------------------------------------
      LOOP:  cpu time    0.1739: real time    0.1739

 eigenvalue-minimisations  :   504
 total energy-change (2. order) :-0.2363836E+01  (-0.2344407E+01)
 number of electron      16.0000000 magnetization 
 augmentation part       16.0000000 magnetization 

 Free energy of the ion-electron system (eV)
  ---------------------------------------------------
  alpha Z        PSCENC =        57.32781593
  Ewald energy   TEWEN  =      -694.65287063
  -Hartree energ DENC   =       -35.52476200
  -exchange      EXHF   =         0.00000000
  -V(xc)+E(xc)   XCENC  =        54.61113475
  PAW double counting   =       434.08818552     -436.36580876
  entropy T*S    EENTRO =        -0.00000000
  eigenvalues    EBANDS =        -0.96692735
  atomic energy  EATOM  =       588.60115103
  Solvation  Ediel_sol  =         0.00000000
  ---------------------------------------------------
  free energy    TOTEN  =       -32.88208150 eV

  energy without entropy =      -32.88208150  energy(sigma->0) =      -32.88208150


--------------------------------------------------------------------------------------------------------




--------------------------------------- Iteration      1(   4)  ---------------------------------------


     EDDAV:  cpu time    0.1667: real time    0.1667
       DOS:  cpu time    0.0002: real time    0.0002
    --------------------------------------------
      LOOP:  cpu time    0.1669: real time    0.1669

 eigenvalue-minimisations  :   476
 total energy-change (2. order) :-0.2502457E-01  (-0.2501118E-01)
 number of electron      16.0000000 magnetization 
 augmentation part       16.0000000 magnetization 

 Free energy of the ion-electron system (eV)
  ---------------------------------------------------
  alpha Z        PSCENC =        57.32781593
  Ewald energy   TEWEN  =      -694.65287063
  -Hartree energ DENC   =       -35.52476200
  -exchange      EXHF   =         0.00000000
  -V(xc)+E(xc)   XCENC  =        54.61113475
  PAW double counting   =       434.08818552     -436.36580876
  entropy T*S    EENTRO =        -0.00000000
  eigenvalues    EBANDS =        -0.99195192
  atomic energy  EATOM  =       588.60115103
  Solvation  Ediel_sol  =         0.00000000
  ---------------------------------------------------
  free energy    TOTEN  =       -32.90710607 eV

  energy without entropy =      -32.90710607  energy(sigma->0) =      -32.90710607


--------------------------------------------------------------------------------------------------------




--------------------------------------- Iteration      1(   5)  ---------------------------------------


     EDDAV:  cpu time    0.1769: real time    0.1769
       DOS:  cpu time    0.0002: real time    0.0002
    CHARGE:  cpu time    0.0173: real time    0.0173
    MIXING:  cpu time    0.0008: real time    0.0008
    --------------------------------------------
      LOOP:  cpu time    0.1953: real time    0.1953

 eigenvalue-minimisations  :   508
 total energy-change (2. order) :-0.5794453E-03  (-0.5793186E-03)
 number of electron      16.0000001 magnetization 
 augmentation part        0.3805898 magnetization 

 Broyden mixing:
  rms(total) = 0.75773E+00    rms(broyden)= 0.75771E+00
  rms(prec ) = 0.14894E+01
  weight for this iteration     100.00

 Free energy of the ion-electron system (eV)
  ---------------------------------------------------
  alpha Z        PSCENC =        57.32781593
  Ewald energy   TEWEN  =      -694.65287063
  -Hartree energ DENC   =       -35.52476200
  -exchange      EXHF   =         0.00000000
  -V(xc)+E(xc)   XCENC  =        54.61113475
  PAW double counting   =       434.08818552     -436.36580876
  entropy T*S    EENTRO =        -0.00000000
  eigenvalues    EBANDS =        -0.99253137
  atomic energy  EATOM  =       588.60115103
  Solvation  Ediel_sol  =         0.00000000
  ---------------------------------------------------
  free energy    TOTEN  =       -32.90768551 eV

  energy without entropy =      -32.90768551  energy(sigma->0) =      -32.90768551


--------------------------------------------------------------------------------------------------------




--------------------------------------- Iteration      1(   6)  ---------------------------------------


    POTLOK:  cpu time    0.0261: real time    0.0261
    SETDIJ:  cpu time    0.0025: real time    0.0025
     EDDAV:  cpu time    0.1610: real time    0.1610
       DOS:  cpu time    0.0002: real time    0.0002
    CHARGE:  cpu time    0.0171: real time    0.0171
    MIXING:  cpu time    0.0009: real time    0.0009
    --------------------------------------------
      LOOP:  cpu time    0.2077: real time    0.2078

 eigenvalue-minimisations  :   432
 total energy-change (2. order) : 0.9297419E+00  (-0.6758002E-01)
 number of electron      16.0000001 magnetization 
 augmentation part        0.3711913 magnetization 

 Broyden mixing:
  rms(total) = 0.44343E+00    rms(broyden)= 0.44343E+00
  rms(prec ) = 0.80698E+00
  weight for this iteration     100.00

 eigenvalues of (default mixing * dielectric matrix)
  average eigenvalue GAMMA=   2.2777
  2.2777

 Free energy of the ion-electron system (eV)
  ---------------------------------------------------
  alpha Z        PSCENC =        57.32781593
  Ewald energy   TEWEN  =      -694.65287063
  -Hartree energ DENC   =       -42.69274359
  -exchange      EXHF   =         0.00000000
  -V(xc)+E(xc)   XCENC  =        55.22957249
  PAW double counting   =       731.20683517     -733.71280206
  entropy T*S    EENTRO =        -0.00000000
  eigenvalues    EBANDS =         6.71509806
  atomic energy  EATOM  =       588.60115103
  Solvation  Ediel_sol  =         0.00000000
  ---------------------------------------------------
  free energy    TOTEN  =       -31.97794358 eV

  energy without entropy =      -31.97794358  energy(sigma->0) =      -31.97794358


--------------------------------------------------------------------------------------------------------




--------------------------------------- Iteration      1(   7)  ---------------------------------------


    POTLOK:  cpu time    0.0328: real time    0.0328
    SETDIJ:  cpu time    0.0025: real time    0.0025
     EDDAV:  cpu time    0.1734: real time    0.1734
       DOS:  cpu time    0.0001: real time    0.0001
    CHARGE:  cpu time    0.0171: real time    0.0171
    MIXING:  cpu time    0.0009: real time    0.0009
    --------------------------------------------
      LOOP:  cpu time    0.2268: real time    0.2268

 eigenvalue-minimisations  :   476
 total energy-change (2. order) : 0.2951537E+00  (-0.7562861E-01)
 number of electron      16.0000001 magnetization 
 augmentation part        0.3609633 magnetization 

 Broyden mixing:
  rms(total) = 0.10400E+00    rms(broyden)= 0.10400E+00
  rms(prec ) = 0.12769E+00
  weight for this iteration     100.00

 eigenvalues of (default mixing * dielectric matrix)
  average eigenvalue GAMMA=   2.3630
  2.0317  2.6943

 Free energy of the ion-electron system (eV)
  ---------------------------------------------------
  alpha Z        PSCENC =        57.32781593
  Ewald energy   TEWEN  =      -694.65287063
  -Hartree energ DENC   =       -51.48703724
  -exchange      EXHF   =         0.00000000
  -V(xc)+E(xc)   XCENC  =        56.01152495
  PAW double counting   =      1261.70499181    -1264.42697652
  entropy T*S    EENTRO =        -0.00000000
  eigenvalues    EBANDS =        15.23861082
  atomic energy  EATOM  =       588.60115103
  Solvation  Ediel_sol  =         0.00000000
  ---------------------------------------------------
  free energy    TOTEN  =       -31.68278985 eV

  energy without entropy =      -31.68278985  energy(sigma->0) =      -31.68278985


--------------------------------------------------------------------------------------------------------




--------------------------------------- Iteration      1(   8)  ---------------------------------------


    POTLOK:  cpu time    0.0249: real time    0.0249
    SETDIJ:  cpu time    0.0025: real time    0.0025
     EDDAV:  cpu time    0.1740: real time    0.1740
       DOS:  cpu time    0.0002: real time    0.0001
    CHARGE:  cpu time    0.0171: real time    0.0171
    MIXING:  cpu time    0.0009: real time    0.0009
    --------------------------------------------
      LOOP:  cpu time    0.2195: real time    0.2195

 eigenvalue-minimisations  :   468
 total energy-change (2. order) :-0.2070417E-02  (-0.2494862E-02)
 number of electron      16.0000001 magnetization 
 augmentation part        0.3610976 magnetization 

 Broyden mixing:
  rms(total) = 0.87615E-02    rms(broyden)= 0.87603E-02
  rms(prec ) = 0.13679E-01
  weight for this iteration     100.00

 eigenvalues of (default mixing * dielectric matrix)
  average eigenvalue GAMMA=   1.8935
  1.2952  2.4866  1.8988

 Free energy of the ion-electron system (eV)
  ---------------------------------------------------
  alpha Z        PSCENC =        57.32781593
  Ewald energy   TEWEN  =      -694.65287063
  -Hartree energ DENC   =       -51.45772414
  -exchange      EXHF   =         0.00000000
  -V(xc)+E(xc)   XCENC  =        56.02492058
  PAW double counting   =      1433.26779972    -1435.93564118
  entropy T*S    EENTRO =        -0.00000000
  eigenvalues    EBANDS =        15.13968842
  atomic energy  EATOM  =       588.60115103
  Solvation  Ediel_sol  =         0.00000000
  ---------------------------------------------------
  free energy    TOTEN  =       -31.68486026 eV

  energy without entropy =      -31.68486026  energy(sigma->0) =      -31.68486026


--------------------------------------------------------------------------------------------------------




--------------------------------------- Iteration      1(   9)  ---------------------------------------


    POTLOK:  cpu time    0.0248: real time    0.0248
    SETDIJ:  cpu time    0.0025: real time    0.0025
     EDDAV:  cpu time    0.1801: real time    0.1801
       DOS:  cpu time    0.0002: real time    0.0001
    CHARGE:  cpu time    0.0171: real time    0.0171
    MIXING:  cpu time    0.0009: real time    0.0009
    --------------------------------------------
      LOOP:  cpu time    0.2255: real time    0.2255

 eigenvalue-minimisations  :   504
 total energy-change (2. order) :-0.4342935E-05  (-0.7397083E-04)
 number of electron      16.0000001 magnetization 
 augmentation part        0.3609727 magnetization 

 Broyden mixing:
  rms(total) = 0.38708E-02    rms(broyden)= 0.38706E-02
  rms(prec ) = 0.60490E-02
  weight for this iteration     100.00

 eigenvalues of (default mixing * dielectric matrix)
  average eigenvalue GAMMA=   1.9518
  1.1264  2.4030  2.4030  1.8748

 Free energy of the ion-electron system (eV)
  ---------------------------------------------------
  alpha Z        PSCENC =        57.32781593
  Ewald energy   TEWEN  =      -694.65287063
  -Hartree energ DENC   =       -51.51847193
  -exchange      EXHF   =         0.00000000
  -V(xc)+E(xc)   XCENC  =        56.02932278
  PAW double counting   =      1423.66053880    -1426.33108189
  entropy T*S    EENTRO =        -0.00000000
  eigenvalues    EBANDS =        15.19873129
  atomic energy  EATOM  =       588.60115103
  Solvation  Ediel_sol  =         0.00000000
  ---------------------------------------------------
  free energy    TOTEN  =       -31.68486461 eV

  energy without entropy =      -31.68486461  energy(sigma->0) =      -31.68486461


--------------------------------------------------------------------------------------------------------




--------------------------------------- Iteration      1(  10)  ---------------------------------------


    POTLOK:  cpu time    0.0249: real time    0.0249
    SETDIJ:  cpu time    0.0026: real time    0.0026
     EDDAV:  cpu time    0.1709: real time    0.1709
       DOS:  cpu time    0.0002: real time    0.0002
    CHARGE:  cpu time    0.0174: real time    0.0174
    MIXING:  cpu time    0.0010: real time    0.0010
    --------------------------------------------
      LOOP:  cpu time    0.2170: real time    0.2170

 eigenvalue-minimisations  :   456
 total energy-change (2. order) :-0.2684142E-04  (-0.5660558E-05)
 number of electron      16.0000001 magnetization 
 augmentation part        0.3609867 magnetization 

 Broyden mixing:
  rms(total) = 0.96358E-03    rms(broyden)= 0.96356E-03
  rms(prec ) = 0.15234E-02
  weight for this iteration     100.00

 eigenvalues of (default mixing * dielectric matrix)
  average eigenvalue GAMMA=   1.8393
  2.5401  2.5401  1.9494  1.0834  1.0834

 Free energy of the ion-electron system (eV)
  ---------------------------------------------------
  alpha Z        PSCENC =        57.32781593
  Ewald energy   TEWEN  =      -694.65287063
  -Hartree energ DENC   =       -51.52419408
  -exchange      EXHF   =         0.00000000
  -V(xc)+E(xc)   XCENC  =        56.03007238
  PAW double counting   =      1421.74283306    -1424.41073896
  entropy T*S    EENTRO =        -0.00000000
  eigenvalues    EBANDS =        15.20103981
  atomic energy  EATOM  =       588.60115103
  Solvation  Ediel_sol  =         0.00000000
  ---------------------------------------------------
  free energy    TOTEN  =       -31.68489145 eV

  energy without entropy =      -31.68489145  energy(sigma->0) =      -31.68489145


--------------------------------------------------------------------------------------------------------




--------------------------------------- Iteration      1(  11)  ---------------------------------------


    POTLOK:  cpu time    0.0250: real time    0.0250
    SETDIJ:  cpu time    0.0026: real time    0.0026
     EDDAV:  cpu time    0.1871: real time    0.1871
       DOS:  cpu time    0.0002: real time    0.0002
    CHARGE:  cpu time    0.0182: real time    0.0182
    MIXING:  cpu time    0.0010: real time    0.0010
    --------------------------------------------
      LOOP:  cpu time    0.2341: real time    0.2341

 eigenvalue-minimisations  :   496
 total energy-change (2. order) :-0.2988216E-05  (-0.4137188E-06)
 number of electron      16.0000001 magnetization 
 augmentation part        0.3609864 magnetization 

 Broyden mixing:
  rms(total) = 0.46396E-03    rms(broyden)= 0.46396E-03
  rms(prec ) = 0.63939E-03
  weight for this iteration     100.00

 eigenvalues of (default mixing * dielectric matrix)
  average eigenvalue GAMMA=   1.8818
  2.6511  2.6511  1.9879  1.9143  1.0432  1.0432

 Free energy of the ion-electron system (eV)
  ---------------------------------------------------
  alpha Z        PSCENC =        57.32781593
  Ewald energy   TEWEN  =      -694.65287063
  -Hartree energ DENC   =       -51.52737641
  -exchange      EXHF   =         0.00000000
  -V(xc)+E(xc)   XCENC  =        56.03049419
  PAW double counting   =      1421.55491157    -1424.22230368
  entropy T*S    EENTRO =        -0.00000000
  eigenvalues    EBANDS =        15.20328355
  atomic energy  EATOM  =       588.60115103
  Solvation  Ediel_sol  =         0.00000000
  ---------------------------------------------------
  free energy    TOTEN  =       -31.68489444 eV

  energy without entropy =      -31.68489444  energy(sigma->0) =      -31.68489444


--------------------------------------------------------------------------------------------------------




--------------------------------------- Iteration      1(  12)  ---------------------------------------


    POTLOK:  cpu time    0.0267: real time    0.0267
    SETDIJ:  cpu time    0.0028: real time    0.0028
     EDDAV:  cpu time    0.1377: real time    0.1377
       DOS:  cpu time    0.0002: real time    0.0002
    --------------------------------------------
      LOOP:  cpu time    0.1673: real time    0.1673

 eigenvalue-minimisations  :   280
 total energy-change (2. order) :-0.5208873E-06  (-0.4433351E-07)
 number of electron      16.0000001 magnetization 
 augmentation part        0.3609864 magnetization 

 Free energy of the ion-electron system (eV)
  ---------------------------------------------------
  alpha Z        PSCENC =        57.32781593
  Ewald energy   TEWEN  =      -694.65287063
  -Hartree energ DENC   =       -51.53079046
  -exchange      EXHF   =         0.00000000
  -V(xc)+E(xc)   XCENC  =        56.03083279
  PAW double counting   =      1420.89186447    -1423.55926082
  entropy T*S    EENTRO =        -0.00000000
  eigenvalues    EBANDS =        15.20636273
  atomic energy  EATOM  =       588.60115103
  Solvation  Ediel_sol  =         0.00000000
  ---------------------------------------------------
  free energy    TOTEN  =       -31.68489496 eV

  energy without entropy =      -31.68489496  energy(sigma->0) =      -31.68489496


--------------------------------------------------------------------------------------------------------




 average (electrostatic) potential at core
  the test charge radii are     0.6991
  (the norm of the test charge is              1.0000)
       1 -45.6885       2 -45.6885       3 -45.6885       4 -45.6885
 
 
 
 E-fermi :  11.5390     XC(G=0): -13.2848     alpha+bet :-17.4857

 Fermi energy:        11.5390325619

 k-point     1 :       0.1250    0.1250    0.2500
  band No.  band energies     occupation 
      1     -10.5153      2.00000
      2      -5.6962      2.00000
      3      -0.3181      2.00000
      4       1.9189      2.00000
      5       4.4458      2.00000
      6       5.0256      2.00000
      7       7.9764      2.00000
      8       9.9225      2.00000
      9      13.9779      0.00000
     10      14.3020      0.00000
     11      17.2343      0.00000
     12      17.6675      0.00000

 k-point     2 :       0.3750    0.1250    0.2500
  band No.  band energies     occupation 
      1      -7.6412      2.00000
      2      -3.6279      2.00000
      3      -2.6863      2.00000
      4       0.0454      2.00000
      5       1.3204      2.00000
      6       2.2374      2.00000
      7       6.0432      2.00000
      8       8.7144      2.00000
      9      13.7484      0.00000
     10      16.1531      0.00000
     11      16.3481      0.00000
     12      19.1327      0.00000

 k-point     3 :      -0.3750    0.1250    0.2500
  band No.  band energies     occupation 
      1      -7.9937      2.00000
      2      -7.4827      2.00000
      3      -0.8283      2.00000
      4       2.2283      2.00000
      5       3.5430      2.00000
      6       5.1567      2.00000
      7       5.7573      2.00000
      8       7.0528      2.00000
      9      13.1870      0.00000
     10      15.5805      0.00000
     11      17.7855      0.00000
     12      19.1285      0.00000

 k-point     4 :      -0.1250    0.1250    0.2500
  band No.  band energies     occupation 
      1     -10.7101      2.00000
      2      -7.9642      2.00000
      3       1.5832      2.00000
      4       3.8627      2.00000
      5       4.8445      2.00000
      6       7.1183      2.00000
      7       8.8356      2.00000
      8       9.4869      2.00000
      9      13.0940      0.00000
     10      13.9348      0.00000
     11      17.2403      0.00000
     12      18.4082      0.00000

 k-point     5 :       0.1250    0.3750    0.2500
  band No.  band energies     occupation 
      1      -7.1474      2.00000
      2      -3.6035      2.00000
      3      -2.4073      2.00000
      4      -0.0974      2.00000
      5       2.0561      2.00000
      6       2.8645      2.00000
      7       4.6945      2.00000
      8       7.0407      2.00000
      9      13.4307      0.00000
     10      14.2648      0.00000
     11      16.0620      0.00000
     12      19.2571      0.00000

 k-point     6 :       0.3750    0.3750    0.2500
  band No.  band energies     occupation 
      1      -6.3360      2.00000
      2      -4.1773      2.00000
      3      -2.7351      2.00000
      4      -0.5561      2.00000
      5       1.6472      2.00000
      6       2.5021      2.00000
      7       4.1492      2.00000
      8       7.3600      2.00000
      9      13.2799      0.00000
     10      16.1970      0.00000
     11      19.3864      0.00000
     12      20.5633      0.00000

 k-point     7 :      -0.3750    0.3750    0.2500
  band No.  band energies     occupation 
      1      -7.3775      2.00000
      2      -6.8444      2.00000
      3      -2.5059      2.00000
      4       1.9527      2.00000
      5       3.8821      2.00000
      6       4.4404      2.00000
      7       5.9839      2.00000
      8       7.5006      2.00000
      9      12.8723      0.00000
     10      15.0650      0.00000
     11      15.6788      0.00000
     12      19.6693      0.00000

 k-point     8 :      -0.1250    0.3750    0.2500
  band No.  band energies     occupation 
      1      -8.5216      2.00000
      2      -5.9067      2.00000
      3      -0.4468      2.00000
      4       1.5096      2.00000
      5       2.9345      2.00000
      6       4.5731      2.00000
      7       5.0515      2.00000
      8       7.8092      2.00000
      9      12.7371      0.00000
     10      15.4262      0.00000
     11      17.8824      0.00000
     12      19.6444      0.00000

 k-point     9 :       0.1250   -0.3750    0.2500
  band No.  band energies     occupation 
      1      -9.0652      2.00000
      2      -4.3877      2.00000
      3      -0.8274      2.00000
      4       1.0063      2.00000
      5       2.0691      2.00000
      6       3.7289      2.00000
      7       5.8949      2.00000
      8       8.5865      2.00000
      9      13.7546      0.00000
     10      14.3628      0.00000
     11      16.6953      0.00000
     12      18.6160      0.00000

 k-point    10 :       0.3750   -0.3750    0.2500
  band No.  band energies     occupation 
      1      -8.9070      2.00000
      2      -3.0355      2.00000
      3      -2.2300      2.00000
      4      -0.2471      2.00000
      5       0.7963      2.00000
      6       4.1542      2.00000
      7       6.2287      2.00000
      8      10.0939      2.00000
      9      14.0924      0.00000
     10      15.0493      0.00000
     11      16.4363      0.00000
     12      19.3820      0.00000

 k-point    11 :      -0.3750   -0.3750    0.2500
  band No.  band energies     occupation 
      1      -6.3449      2.00000
      2      -4.0713      2.00000
      3      -2.3563      2.00000
      4      -0.0147      2.00000
      5       0.2336      2.00000
      6       1.8113      2.00000
      7       4.0996      2.00000
      8       8.5344      2.00000
      9      14.4265      0.00000
     10      17.9624      0.00000
     11      19.1053      0.00000
     12      19.3559      0.00000

 k-point    12 :      -0.1250   -0.3750    0.2500
  band No.  band energies     occupation 
      1      -6.5890      2.00000
      2      -4.3877      2.00000
      3      -2.7860      2.00000
      4      -0.4976      2.00000
      5       2.1853      2.00000
      6       3.9213      2.00000
      7       5.0701      2.00000
      8       6.9078      2.00000
      9      12.4873      0.00000
     10      15.8824      0.00000
     11      18.3618      0.00000
     12      18.4859      0.00000

 k-point    13 :       0.1250   -0.1250    0.2500
  band No.  band energies     occupation 
      1     -11.2624      2.00000
      2      -6.3844      2.00000
      3      -0.8467      2.00000
      4       3.7379      2.00000
      5       5.4136      2.00000
      6       7.1440      2.00000
      7       8.7342      2.00000
      8      10.6145      2.00000
      9      14.0954      0.00000
     10      14.1645      0.00000
     11      17.3583      0.00000
     12      17.7493      0.00000

 k-point    14 :       0.3750   -0.1250    0.2500
  band No.  band energies     occupation 
      1      -9.5987      2.00000
      2      -3.3007      2.00000
      3      -1.4870      2.00000
      4       0.2063      2.00000
      5       1.7930      2.00000
      6       3.7143      2.00000
      7       4.7697      2.00000
      8      11.0705      2.00000
      9      14.8671      0.00000
     10      16.2811      0.00000
     11      18.2792      0.00000
     12      18.8800      0.00000

 k-point    15 :      -0.3750   -0.1250    0.2500
  band No.  band energies     occupation 
      1      -6.5626      2.00000
      2      -5.6134      2.00000
      3      -3.2542      2.00000
      4       0.8093      2.00000
      5       2.4951      2.00000
      6       3.5036      2.00000
      7       5.0762      2.00000
      8       7.8609      2.00000
      9      13.5711      0.00000
     10      15.7024      0.00000
     11      17.0038      0.00000
     12      20.1212      0.00000

 k-point    16 :      -0.1250   -0.1250    0.2500
  band No.  band energies     occupation 
      1      -9.9663      2.00000
      2      -7.2552      2.00000
      3       1.5636      2.00000
      4       2.5049      2.00000
      5       3.6957      2.00000
      6       6.2272      2.00000
      7       7.0287      2.00000
      8       8.7007      2.00000
      9      12.8012      0.00000
     10      14.7088      0.00000
     11      17.6317      0.00000
     12      18.7476      0.00000


--------------------------------------------------------------------------------------------------------


 soft charge-density along one line, spin component           1
         0         1         2         3         4         5         6         7         8         9
 total charge-density along one line
 
 pseudopotential strength for first ion, spin component:           1
  9.451  12.551  -0.002   0.000   0.001   0.005  -0.001  -0.004
 12.551  16.667  -0.002   0.000   0.001   0.007  -0.001  -0.006
 -0.002  -0.002  -3.678   0.002   0.001   7.206  -0.003   0.000
  0.000   0.000   0.002  -3.677  -0.002  -0.003   7.204   0.005
  0.001   0.001   0.001  -0.002  -3.680   0.000   0.005   7.209
  0.005   0.007   7.206  -0.003   0.000 -16.213   0.006  -0.002
 -0.001  -0.001  -0.003   7.204   0.005   0.006 -16.209  -0.011
 -0.004  -0.006   0.000   0.005   7.209  -0.002  -0.011 -16.218
 total augmentation occupancy for first ion, spin component:           1
  6.966  -3.045   0.061   0.116   0.415   0.006   0.022   0.067
 -3.045   1.451  -0.035  -0.078  -0.255  -0.002  -0.013  -0.036
  0.061  -0.035   1.537  -0.022  -0.149   0.125  -0.008  -0.020
  0.116  -0.078  -0.022   1.493  -0.071  -0.008   0.116   0.007
  0.415  -0.255  -0.149  -0.071   1.500  -0.020   0.007   0.119
  0.006  -0.002   0.125  -0.008  -0.020   0.012  -0.001  -0.002
  0.022  -0.013  -0.008   0.116   0.007  -0.001   0.012   0.001
  0.067  -0.036  -0.020   0.007   0.119  -0.002   0.001   0.012


------------------------ aborting loop because EDIFF is reached ----------------------------------------


    CHARGE:  cpu time    0.0187: real time    0.0187
    FORLOC:  cpu time    0.0019: real time    0.0019
    FORNL :  cpu time    0.0228: real time    0.0228
    STRESS:  cpu time    0.0738: real time    0.0738
    FORCOR:  cpu time    0.0276: real time    0.0276
    FORHAR:  cpu time    0.0057: real time    0.0057
    MIXING:  cpu time    0.0010: real time    0.0010
    OFIELD:  cpu time    0.0000: real time    0.0000

  FORCE on cell =-STRESS in cart. coord.  units (eV):
  Direction    XX          YY          ZZ          XY          YZ          ZX
  --------------------------------------------------------------------------------------
  Alpha Z    57.32782    57.32782    57.32782
  Ewald    -244.37417  -236.73433  -213.54416    -0.00000    -0.00000     6.18403
  Hartree    11.29803    14.55815    25.67496     0.00000     0.00000    -0.22090
  E(xc)     -60.49824   -60.45328   -60.27067    -0.00000    -0.00000     0.17198
  Local      -0.37516   -13.52483   -49.31484    -0.00000    -0.00000    -5.62417
  n-local   -12.99854   -12.81986   -13.79901    -0.06910    -0.03458     2.65289
  augment    -1.38595    -1.36475    -1.34498     0.00002    -0.00001    -0.02699
  Kinetic   255.62130   254.83897   255.11423     0.48122     0.28814   -24.58523
  Fock        0.00000     0.00000     0.00000     0.00000     0.00000     0.00000
  -------------------------------------------------------------------------------------
  Total       4.61509     1.82788    -0.15666    -0.00000    -0.00000   -21.44841
  in kB     322.51220   127.73598   -10.94781    -0.00000    -0.00000 -1498.85921
  external pressure =      146.43 kB  Pullay stress =        0.00 kB


 VOLUME and BASIS-vectors are now :
 -----------------------------------------------------------------------------
  energy-cutoff  :      600.00
  volume of cell :       22.93
      direct lattice vectors                 reciprocal lattice vectors
     2.516520035  0.000000000  0.981442814     0.397374146  0.229424070  0.000000000
    -1.258260018  2.179370280 -0.490721407     0.000000000  0.458848140  0.000000000
     0.000000000  0.000000000  4.180357041    -0.093293467  0.000000000  0.239214017

  length of vectors
     2.701129964  2.563918990  4.180357041     0.458848140  0.458848140  0.256762569


 FORCES acting on ions
    electron-ion (+dipol)            ewald-force                    non-local-force                 convergence-correction
 -----------------------------------------------------------------------------------------------
   0.308E+02 0.281E+01 0.123E+02   -.321E+02 -.599E+00 -.124E+02   0.123E+01 0.275E-01 0.126E+01   0.102E-03 0.668E-04 0.902E-04
   -.308E+02 -.281E+01 -.123E+02   0.321E+02 0.599E+00 0.124E+02   -.123E+01 -.275E-01 -.126E+01   -.102E-03 -.668E-04 -.902E-04
   0.308E+02 -.281E+01 0.123E+02   -.321E+02 0.599E+00 -.124E+02   0.123E+01 -.275E-01 0.126E+01   0.102E-03 -.668E-04 0.902E-04
   -.308E+02 0.281E+01 -.123E+02   0.321E+02 -.599E+00 0.124E+02   -.123E+01 0.275E-01 -.126E+01   -.102E-03 0.668E-04 -.902E-04
 -----------------------------------------------------------------------------------------------
   0.818E-11 -.154E-10 0.153E-11   -.711E-14 0.411E-14 0.533E-14   0.222E-15 -.347E-17 -.222E-15   0.999E-15 0.302E-14 -.226E-14
 
 
 POSITION                                       TOTAL-FORCE (eV/Angst)
 -----------------------------------------------------------------------------------
      0.00000      1.45291      0.25999        -0.131810      2.243508      1.217534
      1.25826      0.72646      4.41109         0.131810     -2.243508     -1.217534
      1.25826      0.72646      2.84089        -0.131810     -2.243508      1.217534
      0.00000      1.45291      1.83019         0.131810      2.243508     -1.217534
 -----------------------------------------------------------------------------------
    total drift:                                0.000000     -0.000000      0.000000


--------------------------------------------------------------------------------------------------------



  FREE ENERGIE OF THE ION-ELECTRON SYSTEM (eV)
  ---------------------------------------------------
  free  energy   TOTEN  =       -31.68489496 eV

  energy  without entropy=      -31.68489496  energy(sigma->0) =      -31.68489496
 


--------------------------------------------------------------------------------------------------------


    POTLOK:  cpu time    0.0344: real time    0.0344


--------------------------------------------------------------------------------------------------------




--------------------------------------------------------------------------------------------------------


    WAVPRE:  cpu time    0.0060: real time    0.0060
    FEWALD:  cpu time    0.0001: real time    0.0001
    ORTHCH:  cpu time    0.0033: real time    0.0033
     LOOP+:  cpu time    2.5708: real time    2.5709


--------------------------------------- Iteration      2(   1)  ---------------------------------------


    POTLOK:  cpu time    0.0256: real time    0.0256
    SETDIJ:  cpu time    0.0026: real time    0.0026
     EDDAV:  cpu time    0.1596: real time    0.1596
       DOS:  cpu time    0.0002: real time    0.0002
    CHARGE:  cpu time    0.0178: real time    0.0178
    MIXING:  cpu time    0.0009: real time    0.0009
    --------------------------------------------
      LOOP:  cpu time    0.2067: real time    0.2067

 eigenvalue-minimisations  :   408
 total energy-change (2. order) : 0.4010869E+00  (-0.1478564E+02)
 number of electron      16.0000001 magnetization 
 augmentation part        0.3606377 magnetization 

 Broyden mixing:
  rms(total) = 0.29525E+00    rms(broyden)= 0.29519E+00
  rms(prec ) = 0.49846E+00
  weight for this iteration     100.00

 Free energy of the ion-electron system (eV)
  ---------------------------------------------------
  alpha Z        PSCENC =        57.32781593
  Ewald energy   TEWEN  =      -686.24264960
  -Hartree energ DENC   =       -54.33745368
  -exchange      EXHF   =         0.00000000
  -V(xc)+E(xc)   XCENC  =        56.20614510
  PAW double counting   =      1420.99482499    -1423.66221558
  entropy T*S    EENTRO =        -0.00000128
  eigenvalues    EBANDS =         9.82857550
  atomic energy  EATOM  =       588.60115103
  Solvation  Ediel_sol  =         0.00000000
  ---------------------------------------------------
  free energy    TOTEN  =       -31.28380757 eV

  energy without entropy =      -31.28380630  energy(sigma->0) =      -31.28380694


--------------------------------------------------------------------------------------------------------




--------------------------------------- Iteration      2(   2)  ---------------------------------------


    POTLOK:  cpu time    0.0251: real time    0.0251
    SETDIJ:  cpu time    0.0026: real time    0.0026
     EDDAV:  cpu time    0.1848: real time    0.1848
       DOS:  cpu time    0.0002: real time    0.0002
    CHARGE:  cpu time    0.0178: real time    0.0178
    MIXING:  cpu time    0.0009: real time    0.0009
    --------------------------------------------
      LOOP:  cpu time    0.2314: real time    0.2314

 eigenvalue-minimisations  :   500
 total energy-change (2. order) :-0.2013206E+00  (-0.3057810E+00)
 number of electron      16.0000001 magnetization 
 augmentation part        0.3700021 magnetization 

 Broyden mixing:
  rms(total) = 0.15784E+00    rms(broyden)= 0.15782E+00
  rms(prec ) = 0.30673E+00
  weight for this iteration     100.00

 eigenvalues of (default mixing * dielectric matrix)
  average eigenvalue GAMMA=   1.0512
  1.0512

 Free energy of the ion-electron system (eV)
  ---------------------------------------------------
  alpha Z        PSCENC =        57.32781593
  Ewald energy   TEWEN  =      -686.24264960
  -Hartree energ DENC   =       -54.48069510
  -exchange      EXHF   =         0.00000000
  -V(xc)+E(xc)   XCENC  =        56.21171396
  PAW double counting   =      1537.68887287    -1540.34556897
  entropy T*S    EENTRO =        -0.00000008
  eigenvalues    EBANDS =         9.75423175
  atomic energy  EATOM  =       588.60115103
  Solvation  Ediel_sol  =         0.00000000
  ---------------------------------------------------
  free energy    TOTEN  =       -31.48512822 eV

  energy without entropy =      -31.48512813  energy(sigma->0) =      -31.48512817


--------------------------------------------------------------------------------------------------------




--------------------------------------- Iteration      2(   3)  ---------------------------------------


    POTLOK:  cpu time    0.0251: real time    0.0251
    SETDIJ:  cpu time    0.0026: real time    0.0026
     EDDAV:  cpu time    0.1698: real time    0.1698
       DOS:  cpu time    0.0002: real time    0.0002
    CHARGE:  cpu time    0.0173: real time    0.0173
    MIXING:  cpu time    0.0009: real time    0.0009
    --------------------------------------------
      LOOP:  cpu time    0.2158: real time    0.2158

 eigenvalue-minimisations  :   460
 total energy-change (2. order) : 0.4596086E-01  (-0.7692737E-02)
 number of electron      16.0000001 magnetization 
 augmentation part        0.3683894 magnetization 

 Broyden mixing:
  rms(total) = 0.61939E-01    rms(broyden)= 0.61937E-01
  rms(prec ) = 0.10958E+00
  weight for this iteration     100.00

 eigenvalues of (default mixing * dielectric matrix)
  average eigenvalue GAMMA=   1.5755
  0.9990  2.1520

 Free energy of the ion-electron system (eV)
  ---------------------------------------------------
  alpha Z        PSCENC =        57.32781593
  Ewald energy   TEWEN  =      -686.24264960
  -Hartree energ DENC   =       -55.36384395
  -exchange      EXHF   =         0.00000000
  -V(xc)+E(xc)   XCENC  =        56.28065326
  PAW double counting   =      1540.38800085    -1543.08357106
  entropy T*S    EENTRO =        -0.00000001
  eigenvalues    EBANDS =        10.65327618
  atomic energy  EATOM  =       588.60115103
  Solvation  Ediel_sol  =         0.00000000
  ---------------------------------------------------
  free energy    TOTEN  =       -31.43916735 eV

  energy without entropy =      -31.43916735  energy(sigma->0) =      -31.43916735


--------------------------------------------------------------------------------------------------------




--------------------------------------- Iteration      2(   4)  ---------------------------------------


    POTLOK:  cpu time    0.0250: real time    0.0250
    SETDIJ:  cpu time    0.0026: real time    0.0026
     EDDAV:  cpu time    0.1873: real time    0.1873
       DOS:  cpu time    0.0002: real time    0.0002
    CHARGE:  cpu time    0.0182: real time    0.0182
    MIXING:  cpu time    0.0009: real time    0.0009
    --------------------------------------------
      LOOP:  cpu time    0.2342: real time    0.2342

 eigenvalue-minimisations  :   508
 total energy-change (2. order) : 0.3449846E-02  (-0.2277246E-02)
 number of electron      16.0000001 magnetization 
 augmentation part        0.3673467 magnetization 

 Broyden mixing:
  rms(total) = 0.13558E-01    rms(broyden)= 0.13557E-01
  rms(prec ) = 0.22510E-01
  weight for this iteration     100.00

 eigenvalues of (default mixing * dielectric matrix)
  average eigenvalue GAMMA=   1.7404
  1.0114  2.1049  2.1049

 Free energy of the ion-electron system (eV)
  ---------------------------------------------------
  alpha Z        PSCENC =        57.32781593
  Ewald energy   TEWEN  =      -686.24264960
  -Hartree energ DENC   =       -55.81644996
  -exchange      EXHF   =         0.00000000
  -V(xc)+E(xc)   XCENC  =        56.31701067
  PAW double counting   =      1542.24597653    -1544.96058143
  entropy T*S    EENTRO =        -0.00000000
  eigenvalues    EBANDS =        11.09200932
  atomic energy  EATOM  =       588.60115103
  Solvation  Ediel_sol  =         0.00000000
  ---------------------------------------------------
  free energy    TOTEN  =       -31.43571751 eV

  energy without entropy =      -31.43571751  energy(sigma->0) =      -31.43571751


--------------------------------------------------------------------------------------------------------




--------------------------------------- Iteration      2(   5)  ---------------------------------------


    POTLOK:  cpu time    0.0257: real time    0.0257
    SETDIJ:  cpu time    0.0027: real time    0.0027
     EDDAV:  cpu time    0.1742: real time    0.1742
       DOS:  cpu time    0.0002: real time    0.0002
    CHARGE:  cpu time    0.0178: real time    0.0178
    MIXING:  cpu time    0.0009: real time    0.0009
    --------------------------------------------
      LOOP:  cpu time    0.2214: real time    0.2214

 eigenvalue-minimisations  :   456
 total energy-change (2. order) :-0.1663265E-03  (-0.2230416E-03)
 number of electron      16.0000001 magnetization 
 augmentation part        0.3672435 magnetization 

 Broyden mixing:
  rms(total) = 0.48059E-02    rms(broyden)= 0.48059E-02
  rms(prec ) = 0.71944E-02
  weight for this iteration     100.00

 eigenvalues of (default mixing * dielectric matrix)
  average eigenvalue GAMMA=   1.5465
  2.4206  1.9743  1.0051  0.7860

 Free energy of the ion-electron system (eV)
  ---------------------------------------------------
  alpha Z        PSCENC =        57.32781593
  Ewald energy   TEWEN  =      -686.24264960
  -Hartree energ DENC   =       -55.76001654
  -exchange      EXHF   =         0.00000000
  -V(xc)+E(xc)   XCENC  =        56.31295752
  PAW double counting   =      1544.76927364    -1547.48204721
  entropy T*S    EENTRO =        -0.00000000
  eigenvalues    EBANDS =        11.03763140
  atomic energy  EATOM  =       588.60115103
  Solvation  Ediel_sol  =         0.00000000
  ---------------------------------------------------
  free energy    TOTEN  =       -31.43588383 eV

  energy without entropy =      -31.43588383  energy(sigma->0) =      -31.43588383


--------------------------------------------------------------------------------------------------------




--------------------------------------- Iteration      2(   6)  ---------------------------------------


    POTLOK:  cpu time    0.0265: real time    0.0265
    SETDIJ:  cpu time    0.0027: real time    0.0027
     EDDAV:  cpu time    0.1917: real time    0.1920
       DOS:  cpu time    0.0002: real time    0.0002
    CHARGE:  cpu time    0.0185: real time    0.0185
    MIXING:  cpu time    0.0010: real time    0.0010
    --------------------------------------------
      LOOP:  cpu time    0.2406: real time    0.2408

 eigenvalue-minimisations  :   492
 total energy-change (2. order) : 0.9065761E-05  (-0.5338818E-05)
 number of electron      16.0000001 magnetization 
 augmentation part        0.3671842 magnetization 

 Broyden mixing:
  rms(total) = 0.19143E-02    rms(broyden)= 0.19143E-02
  rms(prec ) = 0.23143E-02
  weight for this iteration     100.00

 eigenvalues of (default mixing * dielectric matrix)
  average eigenvalue GAMMA=   1.6377
  0.9651  1.0914  2.4304  1.8509  1.8509

 Free energy of the ion-electron system (eV)
  ---------------------------------------------------
  alpha Z        PSCENC =        57.32781593
  Ewald energy   TEWEN  =      -686.24264960
  -Hartree energ DENC   =       -55.78425603
  -exchange      EXHF   =         0.00000000
  -V(xc)+E(xc)   XCENC  =        56.31497500
  PAW double counting   =      1544.11661040    -1546.83011901
  entropy T*S    EENTRO =        -0.00000000
  eigenvalues    EBANDS =        11.06059750
  atomic energy  EATOM  =       588.60115103
  Solvation  Ediel_sol  =         0.00000000
  ---------------------------------------------------
  free energy    TOTEN  =       -31.43587477 eV

  energy without entropy =      -31.43587477  energy(sigma->0) =      -31.43587477


--------------------------------------------------------------------------------------------------------




--------------------------------------- Iteration      2(   7)  ---------------------------------------


    POTLOK:  cpu time    0.0260: real time    0.0260
    SETDIJ:  cpu time    0.0027: real time    0.0027
     EDDAV:  cpu time    0.1887: real time    0.1888
       DOS:  cpu time    0.0002: real time    0.0002
    CHARGE:  cpu time    0.0179: real time    0.0179
    MIXING:  cpu time    0.0010: real time    0.0010
    --------------------------------------------
      LOOP:  cpu time    0.2364: real time    0.2365

 eigenvalue-minimisations  :   480
 total energy-change (2. order) :-0.1279199E-05  (-0.6496559E-06)
 number of electron      16.0000001 magnetization 
 augmentation part        0.3671670 magnetization 

 Broyden mixing:
  rms(total) = 0.50441E-03    rms(broyden)= 0.50440E-03
  rms(prec ) = 0.71758E-03
  weight for this iteration     100.00

 eigenvalues of (default mixing * dielectric matrix)
  average eigenvalue GAMMA=   1.6441
  2.5494  2.5494  1.7427  1.0978  1.0026  0.9230

 Free energy of the ion-electron system (eV)
  ---------------------------------------------------
  alpha Z        PSCENC =        57.32781593
  Ewald energy   TEWEN  =      -686.24264960
  -Hartree energ DENC   =       -55.78896169
  -exchange      EXHF   =         0.00000000
  -V(xc)+E(xc)   XCENC  =        56.31539268
  PAW double counting   =      1542.76122101    -1545.47454559
  entropy T*S    EENTRO =        -0.00000000
  eigenvalues    EBANDS =        11.06470017
  atomic energy  EATOM  =       588.60115103
  Solvation  Ediel_sol  =         0.00000000
  ---------------------------------------------------
  free energy    TOTEN  =       -31.43587605 eV

  energy without entropy =      -31.43587604  energy(sigma->0) =      -31.43587605


--------------------------------------------------------------------------------------------------------




--------------------------------------- Iteration      2(   8)  ---------------------------------------


    POTLOK:  cpu time    0.0257: real time    0.0257
    SETDIJ:  cpu time    0.0026: real time    0.0026
     EDDAV:  cpu time    0.1346: real time    0.1346
       DOS:  cpu time    0.0002: real time    0.0002
    --------------------------------------------
      LOOP:  cpu time    0.1630: real time    0.1630

 eigenvalue-minimisations  :   300
 total energy-change (2. order) :-0.1624489E-06  (-0.8726329E-07)
 number of electron      16.0000001 magnetization 
 augmentation part        0.3671670 magnetization 

 Free energy of the ion-electron system (eV)
  ---------------------------------------------------
  alpha Z        PSCENC =        57.32781593
  Ewald energy   TEWEN  =      -686.24264960
  -Hartree energ DENC   =       -55.78683248
  -exchange      EXHF   =         0.00000000
  -V(xc)+E(xc)   XCENC  =        56.31523973
  PAW double counting   =      1542.39261968    -1545.10574497
  entropy T*S    EENTRO =        -0.00000000
  eigenvalues    EBANDS =        11.06252446
  atomic energy  EATOM  =       588.60115103
  Solvation  Ediel_sol  =         0.00000000
  ---------------------------------------------------
  free energy    TOTEN  =       -31.43587621 eV

  energy without entropy =      -31.43587621  energy(sigma->0) =      -31.43587621


--------------------------------------------------------------------------------------------------------




 average (electrostatic) potential at core
  the test charge radii are     0.6991
  (the norm of the test charge is              1.0000)
       1 -45.7938       2 -45.7938       3 -45.7938       4 -45.7938
 
 
 
 E-fermi :  11.2454     XC(G=0): -13.2571     alpha+bet :-17.4857

 Fermi energy:        11.2453675269

 k-point     1 :       0.1250    0.1250    0.2500
  band No.  band energies     occupation 
      1     -10.6788      2.00000
      2      -6.0196      2.00000
      3      -1.0939      2.00000
      4       1.3779      2.00000
      5       4.0310      2.00000
      6       5.6230      2.00000
      7       8.1050      2.00000
      8       8.9164      2.00000
      9      12.6690      0.00000
     10      14.6644      0.00000
     11      16.4680      0.00000
     12      18.0757      0.00000

 k-point     2 :       0.3750    0.1250    0.2500
  band No.  band energies     occupation 
      1      -7.8804      2.00000
      2      -4.5230      2.00000
      3      -2.5185      2.00000
      4       0.4663      2.00000
      5       0.7901      2.00000
      6       2.0395      2.00000
      7       6.5265      2.00000
      8       7.2718      2.00000
      9      13.0316      0.00000
     10      14.6865      0.00000
     11      15.6272      0.00000
     12      20.3148      0.00000

 k-point     3 :      -0.3750    0.1250    0.2500
  band No.  band energies     occupation 
      1      -8.3251      2.00000
      2      -7.6943      2.00000
      3      -0.5778      2.00000
      4       1.6247      2.00000
      5       2.7343      2.00000
      6       4.1925      2.00000
      7       6.1090      2.00000
      8       7.9277      2.00000
      9      12.4725      0.00000
     10      13.7415      0.00000
     11      16.5679      0.00000
     12      19.3031      0.00000

 k-point     4 :      -0.1250    0.1250    0.2500
  band No.  band energies     occupation 
      1     -10.8898      2.00000
      2      -8.1932      2.00000
      3       0.4548      2.00000
      4       3.2500      2.00000
      5       5.0320      2.00000
      6       6.5748      2.00000
      7       8.8281      2.00000
      8      10.8598      2.00000
      9      11.6332      0.00000
     10      13.1898      0.00000
     11      16.1211      0.00000
     12      17.0019      0.00000

 k-point     5 :       0.1250    0.3750    0.2500
  band No.  band energies     occupation 
      1      -7.1196      2.00000
      2      -4.6900      2.00000
      3      -2.6539      2.00000
      4      -0.5436      2.00000
      5       2.0112      2.00000
      6       3.3180      2.00000
      7       4.7653      2.00000
      8       5.4802      2.00000
      9      13.5929      0.00000
     10      14.0580      0.00000
     11      17.0737      0.00000
     12      21.2793      0.00000

 k-point     6 :       0.3750    0.3750    0.2500
  band No.  band energies     occupation 
      1      -6.4431      2.00000
      2      -5.2939      2.00000
      3      -2.5387      2.00000
      4      -0.2284      2.00000
      5       1.7157      2.00000
      6       2.0495      2.00000
      7       4.5308      2.00000
      8       5.5165      2.00000
      9      13.0992      0.00000
     10      15.2581      0.00000
     11      18.6356      0.00000
     12      20.8637      0.00000

 k-point     7 :      -0.3750    0.3750    0.2500
  band No.  band energies     occupation 
      1      -7.7974      2.00000
      2      -7.0102      2.00000
      3      -2.3988      2.00000
      4       1.3501      2.00000
      5       2.8673      2.00000
      6       4.4111      2.00000
      7       5.9281      2.00000
      8       8.4332      2.00000
      9      11.6540      0.00000
     10      13.8087      0.00000
     11      14.8671      0.00000
     12      19.8668      0.00000

 k-point     8 :      -0.1250    0.3750    0.2500
  band No.  band energies     occupation 
      1      -8.7127      2.00000
      2      -6.1186      2.00000
      3      -1.3459      2.00000
      4       0.9596      2.00000
      5       2.2243      2.00000
      6       4.7067      2.00000
      7       5.2115      2.00000
      8       7.9821      2.00000
      9      12.2845      0.00000
     10      15.2474      0.00000
     11      17.9191      0.00000
     12      20.2673      0.00000

 k-point     9 :       0.1250   -0.3750    0.2500
  band No.  band energies     occupation 
      1      -9.2170      2.00000
[...]

--------------------------------------------------------------------------------------------------------


 Conjugate gradient step on ions:
 trial-energy change:   -0.000004  1 .order   -0.000004   -0.000004   -0.000003
  (g-gl).g =-0.612E-04      g.g   = 0.693E-04  gl.gl    = 0.300E-03
 g(Force)  = 0.693E-04   g(Stress)= 0.000E+00 ortho     = 0.127E-03
 gamma     =  -0.20380
 trial     =   0.08677
 opt step  =   0.34708  (harmonic =   0.84141) maximal distance =0.00014512
 next E    =   -33.094564   (d E  =  -0.00002)


--------------------------------------------------------------------------------------------------------


    WAVPRE:  cpu time    0.0059: real time    0.0059
    FEWALD:  cpu time    0.0001: real time    0.0001
    ORTHCH:  cpu time    0.0030: real time    0.0030
     LOOP+:  cpu time    0.5415: real time    0.5417


--------------------------------------- Iteration     58(   1)  ---------------------------------------


    POTLOK:  cpu time    0.0251: real time    0.0251
    SETDIJ:  cpu time    0.0027: real time    0.0027
     EDDAV:  cpu time    0.1478: real time    0.1478
       DOS:  cpu time    0.0002: real time    0.0002
    CHARGE:  cpu time    0.0170: real time    0.0170
    MIXING:  cpu time    0.0008: real time    0.0008
    --------------------------------------------
      LOOP:  cpu time    0.1936: real time    0.1936

 eigenvalue-minimisations  :   384
 total energy-change (2. order) :-0.8087850E-05  (-0.2160811E-04)
 number of electron      16.0000000 magnetization 
 augmentation part        0.3706930 magnetization 

 Broyden mixing:
  rms(total) = 0.22472E-03    rms(broyden)= 0.22457E-03
  rms(prec ) = 0.39486E-03
  weight for this iteration     100.00

 Free energy of the ion-electron system (eV)
  ---------------------------------------------------
  alpha Z        PSCENC =        57.32781593
  Ewald energy   TEWEN  =      -690.45767183
  -Hartree energ DENC   =       -54.79120957
  -exchange      EXHF   =         0.00000000
  -V(xc)+E(xc)   XCENC  =        56.25703311
  PAW double counting   =      1489.44660646    -1492.13201495
  entropy T*S    EENTRO =        -0.00000000
  eigenvalues    EBANDS =        12.65373264
  atomic energy  EATOM  =       588.60115103
  Solvation  Ediel_sol  =         0.00000000
  ---------------------------------------------------
  free energy    TOTEN  =       -33.09455718 eV

  energy without entropy =      -33.09455718  energy(sigma->0) =      -33.09455718


--------------------------------------------------------------------------------------------------------




--------------------------------------- Iteration     58(   2)  ---------------------------------------


    POTLOK:  cpu time    0.0246: real time    0.0246
    SETDIJ:  cpu time    0.0026: real time    0.0026
     EDDAV:  cpu time    0.1723: real time    0.1723
       DOS:  cpu time    0.0002: real time    0.0002
    --------------------------------------------
      LOOP:  cpu time    0.1996: real time    0.1997

 eigenvalue-minimisations  :   476
 total energy-change (2. order) :-0.1141885E-06  (-0.2324339E-06)
 number of electron      16.0000000 magnetization 
 augmentation part        0.3706930 magnetization 

 Free energy of the ion-electron system (eV)
  ---------------------------------------------------
  alpha Z        PSCENC =        57.32781593
  Ewald energy   TEWEN  =      -690.45767183
  -Hartree energ DENC   =       -54.79032475
  -exchange      EXHF   =         0.00000000
  -V(xc)+E(xc)   XCENC  =        56.25696311
  PAW double counting   =      1489.35956019    -1492.04493635
  entropy T*S    EENTRO =        -0.00000000
  eigenvalues    EBANDS =        12.65288536
  atomic energy  EATOM  =       588.60115103
  Solvation  Ediel_sol  =         0.00000000
  ---------------------------------------------------
  free energy    TOTEN  =       -33.09455730 eV

  energy without entropy =      -33.09455730  energy(sigma->0) =      -33.09455730


--------------------------------------------------------------------------------------------------------




 average (electrostatic) potential at core
  the test charge radii are     0.6991
  (the norm of the test charge is              1.0000)
       1 -45.6268       2 -45.6268       3 -45.6268       4 -45.6268
 
 
 
 E-fermi :  11.1541     XC(G=0): -13.2275     alpha+bet :-17.4857

 Fermi energy:        11.1540647622

 k-point     1 :       0.1250    0.1250    0.2500
  band No.  band energies     occupation 
      1     -10.5538      2.00000
      2      -5.7953      2.00000
      3      -0.6570      2.00000
      4       1.9556      2.00000
      5       3.7051      2.00000
      6       6.1189      2.00000
      7       7.4832      2.00000
      8       9.5252      2.00000
      9      13.0502      0.00000
     10      14.6894      0.00000
     11      17.4070      0.00000
     12      19.2863      0.00000

 k-point     2 :       0.3750    0.1250    0.2500
  band No.  band energies     occupation 
      1      -7.6775      2.00000
      2      -4.0946      2.00000
      3      -2.3838      2.00000
      4       0.0453      2.00000
      5       1.4042      2.00000
      6       2.0042      2.00000
      7       6.0390      2.00000
      8       7.4646      2.00000
      9      14.7938      0.00000
     10      16.2519      0.00000
     11      16.4533      0.00000
     12      19.3408      0.00000

 k-point     3 :      -0.3750    0.1250    0.2500
  band No.  band energies     occupation 
      1      -8.1191      2.00000
      2      -7.5011      2.00000
      3      -0.6784      2.00000
      4       2.1308      2.00000
      5       3.3375      2.00000
      6       4.6260      2.00000
      7       6.0177      2.00000
      8       6.3355      2.00000
      9      13.4992      0.00000
     10      16.4971      0.00000
     11      17.6030      0.00000
     12      18.6668      0.00000

 k-point     4 :      -0.1250    0.1250    0.2500
  band No.  band energies     occupation 
      1     -10.7647      2.00000
      2      -8.0181      2.00000
      3       1.1214      2.00000
      4       3.8097      2.00000
      5       5.3967      2.00000
      6       7.0519      2.00000
      7       7.9005      2.00000
      8       8.7770      2.00000
      9      14.2115      0.00000
     10      14.4240      0.00000
     11      16.8972      0.00000
     12      17.9554      0.00000

 k-point     5 :       0.1250    0.3750    0.2500
  band No.  band energies     occupation 
      1      -7.0387      2.00000
      2      -4.2710      2.00000
      3      -2.3389      2.00000
      4       0.1735      2.00000
      5       2.0412      2.00000
      6       3.0898      2.00000
      7       3.7157      2.00000
      8       6.7442      2.00000
      9      12.5604      0.00000
     10      15.3466      0.00000
     11      18.2730      0.00000
     12      20.4206      0.00000

 k-point     6 :       0.3750    0.3750    0.2500
  band No.  band energies     occupation 
      1      -6.1633      2.00000
      2      -5.0122      2.00000
      3      -2.1873      2.00000
      4      -0.5557      2.00000
      5       1.6036      2.00000
      6       2.7040      2.00000
      7       3.8856      2.00000
      8       5.9052      2.00000
      9      14.5349      0.00000
     10      16.6611      0.00000
     11      19.6970      0.00000
     12      20.3504      0.00000

 k-point     7 :      -0.3750    0.3750    0.2500
  band No.  band energies     occupation 
      1      -7.5344      2.00000
      2      -6.8374      2.00000
      3      -2.4250      2.00000
      4       2.0696      2.00000
      5       3.2385      2.00000
      6       4.0187      2.00000
      7       6.3522      2.00000
      8       6.9243      2.00000
      9      13.1877      0.00000
     10      15.3355      0.00000
     11      15.9404      0.00000
     12      19.5569      0.00000

 k-point     8 :      -0.1250    0.3750    0.2500
  band No.  band energies     occupation 
      1      -8.5690      2.00000
      2      -5.9291      2.00000
      3      -0.6302      2.00000
      4       1.0308      2.00000
      5       2.9640      2.00000
      6       3.9569      2.00000
      7       5.5684      2.00000
      8       7.4691      2.00000
      9      14.0234      0.00000
     10      15.3329      0.00000
     11      17.0506      0.00000
     12      18.7607      0.00000

 k-point     9 :       0.1250   -0.3750    0.2500
  band No.  band energies     occupation 
      1      -9.0875      2.00000
      2      -4.5270      2.00000
      3      -1.1965      2.00000
      4       1.0634      2.00000
      5       1.8359      2.00000
      6       4.5965      2.00000
      7       4.9982      2.00000
      8       8.0198      2.00000
      9      12.9446      0.00000
     10      15.2947      0.00000
     11      18.6900      0.00000
     12      19.4431      0.00000

 k-point    10 :       0.3750   -0.3750    0.2500
  band No.  band energies     occupation 
      1      -8.9599      2.00000
      2      -3.3462      2.00000
      3      -2.1787      2.00000
      4      -0.2563      2.00000
      5       0.8925      2.00000
      6       3.7084      2.00000
      7       6.7888      2.00000
      8       8.7122      2.00000
      9      13.8861      0.00000
     10      15.2720      0.00000
     11      17.4443      0.00000
     12      19.6262      0.00000

 k-point    11 :      -0.3750   -0.3750    0.2500
  band No.  band energies     occupation 
      1      -6.5152      2.00000
      2      -3.6008      2.00000
      3      -2.6451      2.00000
      4      -1.1745      2.00000
      5       0.8428      2.00000
      6       2.4118      2.00000
      7       3.2767      2.00000
      8       8.2056      2.00000
      9      14.4668      0.00000
     10      18.5295      0.00000
     11      18.7181      0.00000
     12      20.2069      0.00000

 k-point    12 :      -0.1250   -0.3750    0.2500
  band No.  band energies     occupation 
      1      -6.5897      2.00000
      2      -4.2663      2.00000
      3      -2.9956      2.00000
      4      -1.2619      2.00000
      5       2.9101      2.00000
      6       3.1227      2.00000
      7       5.1330      2.00000
      8       6.7204      2.00000
      9      13.8404      0.00000
     10      15.1621      0.00000
     11      16.6494      0.00000
     12      19.1575      0.00000

 k-point    13 :       0.1250   -0.1250    0.2500
  band No.  band energies     occupation 
      1     -11.3032      2.00000
      2      -6.4783      2.00000
      3      -1.1334      2.00000
      4       3.8970      2.00000
      5       4.8783      2.00000
      6       7.3034      2.00000
      7       9.0903      2.00000
      8      10.6365      2.00000
      9      12.8753      0.00000
     10      13.9416      0.00000
     11      16.9157      0.00000
     12      17.8872      0.00000

 k-point    14 :       0.3750   -0.1250    0.2500
  band No.  band energies     occupation 
      1      -9.6510      2.00000
      2      -3.4184      2.00000
      3      -1.8813      2.00000
      4       0.6917      2.00000
      5       1.7944      2.00000
      6       2.9696      2.00000
      7       5.3873      2.00000
      8       9.5787      2.00000
      9      15.4563      0.00000
     10      15.9584      0.00000
     11      18.9597      0.00000
     12      19.5656      0.00000

 k-point    15 :      -0.3750   -0.1250    0.2500
  band No.  band energies     occupation 
      1      -6.7646      2.00000
      2      -5.5177      2.00000
      3      -3.2243      2.00000
      4       0.5949      2.00000
      5       2.2101      2.00000
      6       3.5140      2.00000
      7       4.8162      2.00000
      8       7.5701      2.00000
      9      13.8233      0.00000
     10      15.7332      0.00000
     11      17.3397      0.00000
     12      20.5308      0.00000

 k-point    16 :      -0.1250   -0.1250    0.2500
  band No.  band energies     occupation 
      1     -10.0202      2.00000
      2      -7.3043      2.00000
      3       1.2735      2.00000
      4       2.0749      2.00000
      5       4.3159      2.00000
      6       5.3311      2.00000
      7       7.2811      2.00000
      8       8.1032      2.00000
      9      14.1287      0.00000
     10      15.0789      0.00000
     11      16.9881      0.00000
     12      18.0819      0.00000


--------------------------------------------------------------------------------------------------------


 soft charge-density along one line, spin component           1
         0         1         2         3         4         5         6         7         8         9
 total charge-density along one line
 
 pseudopotential strength for first ion, spin component:           1
  9.449  12.548   0.001  -0.000  -0.001  -0.001   0.001   0.005
 12.548  16.662   0.001  -0.000  -0.001  -0.002   0.001   0.006
  0.001   0.001  -3.675  -0.001   0.001   7.197   0.002  -0.002
 -0.000  -0.000  -0.001  -3.673   0.000   0.002   7.193   0.000
 -0.001  -0.001   0.001   0.000  -3.676  -0.002   0.000   7.200
 -0.001  -0.002   7.197   0.002  -0.002 -16.192  -0.004   0.001
  0.001   0.001   0.002   7.193   0.000  -0.004 -16.182  -0.001
  0.005   0.006  -0.002   0.000   7.200   0.001  -0.001 -16.201
 total augmentation occupancy for first ion, spin component:           1
  7.239  -3.188  -0.173  -0.038  -0.375  -0.023  -0.006  -0.062
 -3.188   1.513   0.097   0.027   0.235   0.011   0.003   0.033
 -0.173   0.097   1.572  -0.038  -0.129   0.131  -0.003  -0.020
 -0.038   0.027  -0.038   1.630  -0.054  -0.003   0.123  -0.009
 -0.375   0.235  -0.129  -0.054   1.430  -0.020  -0.009   0.122
 -0.023   0.011   0.131  -0.003  -0.020   0.013  -0.000  -0.003
 -0.006   0.003  -0.003   0.123  -0.009  -0.000   0.012  -0.001
 -0.062   0.033  -0.020  -0.009   0.122  -0.003  -0.001   0.012


------------------------ aborting loop because EDIFF is reached ----------------------------------------


    CHARGE:  cpu time    0.0169: real time    0.0169
    FORLOC:  cpu time    0.0018: real time    0.0018
    FORNL :  cpu time    0.0213: real time    0.0213
    STRESS:  cpu time    0.0685: real time    0.0685
    FORCOR:  cpu time    0.0255: real time    0.0255
    FORHAR:  cpu time    0.0052: real time    0.0052
    MIXING:  cpu time    0.0008: real time    0.0008
    OFIELD:  cpu time    0.0000: real time    0.0000

  FORCE on cell =-STRESS in cart. coord.  units (eV):
  Direction    XX          YY          ZZ          XY          YZ          ZX
  --------------------------------------------------------------------------------------
  Alpha Z    57.32782    57.32782    57.32782
  Ewald    -242.89501  -226.89123  -220.67199     0.00000     0.00000   -35.76596
  Hartree    14.69392    17.68133    22.41358    -0.00000    -0.00000   -10.25343
  E(xc)     -60.57824   -60.69699   -60.78988    -0.00000    -0.00000    -0.16082
  Local      -8.80113   -25.35310   -36.24180    -0.00000    -0.00000    44.16747
  n-local   -11.60920   -13.35955   -16.23177    -0.07519    -0.02144     0.12633
  augment    -1.43186    -1.42160    -1.39790     0.00002     0.00000     0.00335
  Kinetic   237.64251   254.37890   276.92101     0.57797     0.14754     3.16183
  Fock        0.00000     0.00000     0.00000     0.00000     0.00000     0.00000
  -------------------------------------------------------------------------------------
  Total     -15.65119     1.66559    21.32907    -0.00000    -0.00000     1.27877
  in kB   -1093.73767   116.39495  1490.51932    -0.00000    -0.00000    89.36332
  external pressure =      171.06 kB  Pullay stress =        0.00 kB


 VOLUME and BASIS-vectors are now :
 -----------------------------------------------------------------------------
  energy-cutoff  :      600.00
  volume of cell :       22.93
      direct lattice vectors                 reciprocal lattice vectors
     2.516520035  0.000000000  0.981442814     0.397374146  0.229424070  0.000000000
    -1.258260018  2.179370280 -0.490721407     0.000000000  0.458848140  0.000000000
     0.000000000  0.000000000  4.180357041    -0.093293467  0.000000000  0.239214017

  length of vectors
     2.701129964  2.563918990  4.180357041     0.458848140  0.458848140  0.256762569


 FORCES acting on ions
    electron-ion (+dipol)            ewald-force                    non-local-force                 convergence-correction
 -----------------------------------------------------------------------------------------------
   -.280E+02 -.100E+02 -.258E+01   0.295E+02 0.957E+01 0.284E+01   -.147E+01 0.440E+00 -.262E+00   -.848E-03 -.828E-03 -.323E-03
   0.280E+02 0.100E+02 0.258E+01   -.295E+02 -.957E+01 -.284E+01   0.147E+01 -.440E+00 0.262E+00   0.848E-03 0.828E-03 0.323E-03
   -.280E+02 0.100E+02 -.258E+01   0.295E+02 -.957E+01 0.284E+01   -.147E+01 -.440E+00 -.262E+00   -.848E-03 0.828E-03 -.323E-03
   0.280E+02 -.100E+02 0.258E+01   -.295E+02 0.957E+01 -.284E+01   0.147E+01 0.440E+00 0.262E+00   0.848E-03 -.828E-03 0.323E-03
 -----------------------------------------------------------------------------------------------
   0.850E-11 -.182E-10 0.802E-11   0.355E-14 0.533E-14 0.178E-14   0.000E+00 0.000E+00 0.167E-15   0.754E-13 -.908E-13 -.131E-12
 
 
 POSITION                                       TOTAL-FORCE (eV/Angst)
 -----------------------------------------------------------------------------------
      0.45406      1.78959      0.45075         0.007323      0.009760     -0.001867
      0.80420      0.38978      4.22033        -0.007323     -0.009760      0.001867
      1.71232      0.38978      3.03165         0.007323     -0.009760     -0.001867
     -0.45406      1.78959      1.63943        -0.007323      0.009760      0.001867
 -----------------------------------------------------------------------------------
    total drift:                                0.000000     -0.000000      0.000000


--------------------------------------------------------------------------------------------------------



  FREE ENERGIE OF THE ION-ELECTRON SYSTEM (eV)
  ---------------------------------------------------
  free  energy   TOTEN  =       -33.09455730 eV

  energy  without entropy=      -33.09455730  energy(sigma->0) =      -33.09455730
 
 d Force = 0.8290920E-05[ 0.643E-05, 0.102E-04]  d Energy = 0.8212837E-05 0.781E-07
 d Force = 0.1715018E-01[ 0.171E-01, 0.172E-01]  d Ewald  = 0.1715018E-01-0.153E-08


--------------------------------------------------------------------------------------------------------


    POTLOK:  cpu time    0.0276: real time    0.0276


--------------------------------------------------------------------------------------------------------




--------------------------------------------------------------------------------------------------------


  
 reached required accuracy - stopping structural energy minimisation
     LOOP+:  cpu time    0.5657: real time    0.5657
    4ORBIT:  cpu time    0.0000: real time    0.0000

 total amount of memory used by VASP MPI-rank0    45639. kBytes
=======================================================================

   base      :      30000. kBytes
   nonl-proj :        846. kBytes
   fftplans  :       4836. kBytes
   grid      :       7457. kBytes
   one-center:         12. kBytes
   wavefun   :       2488. kBytes
 
  
  
 General timing and accounting informations for this job:
 ========================================================
  
                  Total CPU time used (sec):       75.405
                            User time (sec):       75.208
                          System time (sec):        0.197
                         Elapsed time (sec):       75.783
  
                   Maximum memory used (kb):      117800.
                   Average memory used (kb):          N/A
  
                          Minor page faults:        14400
                          Major page faults:            0
                 Voluntary context switches:          536
