<?xml version="1.0" encoding="ISO-8859-1"?>
<modeling>
 <generator>
  <i name="program" type="string">vasp </i>
  <i name="version" type="string">6.2.1  </i>
  <i name="subversion" type="string">16May21 (build Oct 21 2023 21:03:18) complex                          parallel </i>
  <i name="platform" type="string">LinuxIFC </i>
  <i name="date" type="string">2024 04 26 </i>
  <i name="time" type="string">16:24:25 </i>
 </generator>
 <incar>
  <i type="int" name="ISTART">     0</i>
  <i type="string" name="PREC">accurate</i>
  <i type="int" name="IBRION">     2</i>
  <i name="EDIFF">      0.00000100</i>
  <i name="EDIFFG">      0.00001000</i>
  <i type="int" name="NSW">   300</i>
  <i type="int" name="ISIF">     2</i>
  <i type="int" name="ISYM">     2</i>
  <i name="ENCUT">    600.00000000</i>
  <i type="logical" name="LREAL"> F  </i>
  <i type="logical" name="LPLANE"> F  </i>
  <i type="int" name="ISMEAR">     0</i>
  <i name="SIGMA">      0.10000000</i>
  <i type="logical" name="LWAVE"> F  </i>
  <i type="logical" name="LCHARG"> F  </i>
 </incar>
 <primitive_cell>
  <structure name="primitive_cell" >
   <crystal>
    <varray name="basis" >
     <v>       2.51652004       0.00000000       0.98144281 </v>
     <v>      -1.25826002       2.17937028      -0.49072141 </v>
     <v>       0.00000000       0.00000000       4.18035704 </v>
    </varray>
    <i name="volume">     22.92687127 </i>
    <varray name="rec_basis" >
     <v>       0.39737415       0.22942407       0.00000000 </v>
     <v>       0.00000000       0.45884814       0.00000000 </v>
     <v>      -0.09329347       0.00000000       0.23921402 </v>
    </varray>
   </crystal>
   <varray name="positions" >
    <v>       0.33333333       0.66666667       0.06219378 </v>
    <v>       0.66666667       0.33333333       0.93780622 </v>
    <v>       0.66666667       0.33333333       0.56219378 </v>
    <v>       0.33333333       0.66666667       0.43780622 </v>
   </varray>
  </structure>
  <varray name="primitive_index" >
   <v type="int" >        1 </v>
   <v type="int" >        2 </v>
   <v type="int" >        3 </v>
   <v type="int" >        4 </v>
  </varray>
 </primitive_cell>
 <kpoints>
  <generation param="Monkhorst-Pack">
   <v type="int" name="divisions">       4        4        2 </v>
   <v name="usershift">      0.00000000       0.00000000       0.00000000 </v>
   <v name="genvec1">      0.25000000      -0.00000000       0.00000000 </v>
   <v name="genvec2">      0.00000000       0.25000000       0.00000000 </v>
   <v name="genvec3">      0.00000000      -0.00000000       0.50000000 </v>
   <v name="shift">      0.50000000       0.50000000       0.50000000 </v>
  </generation>
  <varray name="kpointlist" >
   <v>       0.12500000       0.12500000       0.25000000 </v>
   <v>       0.37500000       0.12500000       0.25000000 </v>
   <v>      -0.37500000       0.12500000       0.25000000 </v>
   <v>      -0.12500000       0.12500000       0.25000000 </v>
   <v>       0.12500000       0.37500000       0.25000000 </v>
   <v>       0.37500000       0.37500000       0.25000000 </v>
   <v>      -0.37500000       0.37500000       0.25000000 </v>
   <v>      -0.12500000       0.37500000       0.25000000 </v>
   <v>       0.12500000      -0.37500000       0.25000000 </v>
   <v>       0.37500000      -0.37500000       0.25000000 </v>
   <v>      -0.37500000      -0.37500000       0.25000000 </v>
   <v>      -0.12500000      -0.37500000       0.25000000 </v>
   <v>       0.12500000      -0.12500000       0.25000000 </v>
   <v>       0.37500000      -0.12500000       0.25000000 </v>
   <v>      -0.37500000      -0.12500000       0.25000000 </v>
   <v>      -0.12500000      -0.12500000       0.25000000 </v>
  </varray>
  <varray name="weights" >
   <v>       0.06250000 </v>
   <v>       0.06250000 </v>
   <v>       0.06250000 </v>
   <v>       0.06250000 </v>
   <v>       0.06250000 </v>
   <v>       0.06250000 </v>
   <v>       0.06250000 </v>
   <v>       0.06250000 </v>
   <v>       0.06250000 </v>
   <v>       0.06250000 </v>
   <v>       0.06250000 </v>
   <v>       0.06250000 </v>
   <v>       0.06250000 </v>
   <v>       0.06250000 </v>
   <v>       0.06250000 </v>
   <v>       0.06250000 </v>
  </varray>
 </kpoints>
 <parameters>
  <separator name="general" >
   <i type="string" name="SYSTEM">unknown system</i>
   <i type="logical" name="LCOMPAT"> F  </i>
  </separator>
  <separator name="electronic" >
   <i type="string" name="PREC">accura</i>
   <i name="ENMAX">    600.00000000</i>
   <i name="ENAUG">    644.87300000</i>
   <i name="EDIFF">      0.00000100</i>
   <i type="int" name="IALGO">    38</i>
   <i type="int" name="IWAVPR">    11</i>
   <i type="int" name="NBANDS">    12</i>
   <i type="int" name="NBANDSLOW">    -1</i>
   <i type="int" name="NBANDSHIGH">    -1</i>
   <i name="NELECT">     16.00000000</i>
   <i type="int" name="TURBO">     0</i>
   <i type="int" name="IRESTART">     0</i>
   <i type="int" name="NREBOOT">     0</i>
   <i type="int" name="NMIN">     0</i>
   <i name="EREF">      0.00000000</i>
   <separator name="electronic smearing" >
    <i type="int" name="ISMEAR">     0</i>
    <i name="SIGMA">      0.10000000</i>
    <i name="KSPACING">      0.50000000</i>
    <i type="logical" name="KGAMMA"> T  </i>
    <i type="logical" name="KBLOWUP"> T  </i>
   </separator>
   <separator name="electronic projectors" >
    <i type="logical" name="LREAL"> F  </i>
    <v name="ROPT">      0.00000000</v>
    <i type="int" name="LMAXPAW">  -100</i>
    <i type="int" name="LMAXMIX">     2</i>
    <i type="logical" name="NLSPLINE"> F  </i>
   </separator>
   <separator name="electronic startup" >
    <i type="int" name="ISTART">     0</i>
    <i type="int" name="ICHARG">     2</i>
    <i type="int" name="INIWAV">     1</i>
   </separator>
   <separator name="electronic spin" >
    <i type="int" name="ISPIN">     1</i>
    <i type="logical" name="LNONCOLLINEAR"> F  </i>
    <v name="MAGMOM">      1.00000000      1.00000000      1.00000000      1.00000000</v>
    <i name="NUPDOWN">     -1.00000000</i>
    <i type="logical" name="LSORBIT"> F  </i>
    <v name="SAXIS">      0.00000000      0.00000000      1.00000000</v>
    <i type="logical" name="LSPIRAL"> F  </i>
    <v name="QSPIRAL">      0.00000000      0.00000000      0.00000000</v>
    <i type="logical" name="LZEROZ"> F  </i>
   </separator>
   <separator name="electronic exchange-correlation" >
    <i type="logical" name="LASPH"> F  </i>
    <i type="logical" name="LMETAGGA"> F  </i>
   </separator>
   <separator name="electronic convergence" >
    <i type="int" name="NELM">    60</i>
    <i type="int" name="NELMDL">    -5</i>
    <i type="int" name="NELMIN">     2</i>
    <i name="ENINI">    600.00000000</i>
    <separator name="electronic convergence detail" >
     <i type="logical" name="LDIAG"> T  </i>
     <i type="logical" name="LSUBROT"> F  </i>
     <i name="WEIMIN">      0.00100000</i>
     <i name="EBREAK">      0.00000002</i>
     <i name="DEPER">      0.30000000</i>
     <i type="int" name="NRMM">     4</i>
     <i name="TIME">      0.40000000</i>
    </separator>
   </separator>
   <separator name="electronic mixer" >
    <i name="AMIX">      0.40000000</i>
    <i name="BMIX">      1.00000000</i>
    <i name="AMIN">      0.10000000</i>
    <i name="AMIX_MAG">      1.60000000</i>
    <i name="BMIX_MAG">      1.00000000</i>
    <separator name="electronic mixer details" >
     <i type="int" name="IMIX">     4</i>
     <i type="logical" name="MIXFIRST"> F  </i>
     <i type="int" name="MAXMIX">   -45</i>
     <i name="WC">    100.00000000</i>
     <i type="int" name="INIMIX">     1</i>
     <i type="int" name="MIXPRE">     1</i>
     <i type="int" name="MREMOVE">     5</i>
    </separator>
   </separator>
   <separator name="electronic dipolcorrection" >
    <i type="logical" name="LDIPOL"> F  </i>
    <i type="logical" name="LMONO"> F  </i>
    <i type="int" name="IDIPOL">     0</i>
    <i name="EPSILON">      1.00000000</i>
    <v name="DIPOL">   -100.00000000   -100.00000000   -100.00000000</v>
    <i name="EFIELD">      0.00000000</i>
   </separator>
  </separator>
  <separator name="grids" >
   <i type="int" name="NGX">    24</i>
   <i type="int" name="NGY">    20</i>
   <i type="int" name="NGZ">    36</i>
   <i type="int" name="NGXF">    48</i>
   <i type="int" name="NGYF">    40</i>
   <i type="int" name="NGZF">    72</i>
   <i type="logical" name="ADDGRID"> F  </i>
  </separator>
  <separator name="ionic" >
   <i type="int" name="NSW">   300</i>
   <i type="int" name="IBRION">     2</i>
   <i type="int" name="MDALGO">     0</i>
   <i type="int" name="ISIF">     2</i>
   <i name="PSTRESS">      0.00000000</i>
   <i name="EDIFFG">      0.00001000</i>
   <i type="int" name="NFREE">     1</i>
   <i name="POTIM">      0.50000000</i>
   <i name="SMASS">     -3.00000000</i>
   <i name="SCALEE">      1.00000000</i>
  </separator>
  <separator name="ionic md" >
   <i name="TEBEG">      0.00010000</i>
   <i name="TEEND">      0.00010000</i>
   <i type="int" name="NBLOCK">     1</i>
   <i type="int" name="KBLOCK">   300</i>
   <i type="int" name="NPACO">   256</i>
   <i name="APACO">     16.00000000</i>
  </separator>
  <separator name="symmetry" >
   <i type="int" name="ISYM">     2</i>
   <i name="SYMPREC">      0.00001000</i>
  </separator>
  <separator name="dos" >
   <i type="int" name="LORBIT">     0</i>
   <v name="RWIGS">     -1.00000000</v>
   <i type="int" name="NEDOS">   301</i>
   <i name="EMIN">     10.00000000</i>
   <i name="EMAX">    -10.00000000</i>
   <i name="EFERMI">      0.00000000</i>
  </separator>
  <separator name="writing" >
   <i type="int" name="NWRITE">     2</i>
   <i type="logical" name="LWAVE"> F  </i>
   <i type="logical" name="LDOWNSAMPLE"> F  </i>
   <i type="logical" name="LCHARG"> F  </i>
   <i type="logical" name="LPARD"> F  </i>
   <i type="logical" name="LVTOT"> F  </i>
   <i type="logical" name="LVHAR"> F  </i>
   <i type="logical" name="LELF"> F  </i>
   <i type="logical" name="LOPTICS"> F  </i>
   <v name="STM">      0.00000000      0.00000000      0.00000000      0.00000000      0.00000000      0.00000000      0.00000000</v>
  </separator>
  <separator name="performance" >
   <i type="int" name="NPAR">     1</i>
   <i type="int" name="NSIM">     4</i>
   <i type="int" name="NBLK">    -1</i>
   <i type="logical" name="LPLANE"> F  </i>
   <i type="logical" name="LSCALAPACK"> T  </i>
   <i type="logical" name="LSCAAWARE"> F  </i>
   <i type="logical" name="LSCALU"> F  </i>
   <i type="logical" name="LASYNC"> F  </i>
   <i type="logical" name="LORBITALREAL"> F  </i>
  </separator>
  <separator name="miscellaneous" >
   <i type="int" name="IDIOT">     3</i>
   <i type="int" name="PHON_NSTRUCT">    -1</i>
   <i type="logical" name="LMUSIC"> F  </i>
   <v name="POMASS">     12.01100000</v>
   <v name="DARWINR">      0.00000000</v>
   <v name="DARWINV">      1.00000000</v>
   <i type="logical" name="LCORR"> T  </i>
  </separator>
  <i type="logical" name="GGA_COMPAT"> T  </i>
  <i type="logical" name="LBERRY"> F  </i>
  <i type="int" name="ICORELEVEL">     0</i>
  <i type="logical" name="LDAU"> F  </i>
  <i type="int" name="I_CONSTRAINED_M">     0</i>
  <separator name="electronic exchange-correlation" >
   <i type="string" name="GGA">--</i>
   <i type="int" name="VOSKOWN">     0</i>
   <i type="logical" name="LHFCALC"> F  </i>
   <i type="string" name="PRECFOCK"></i>
   <i type="logical" name="LSYMGRAD"> F  </i>
   <i type="logical" name="LHFONE"> F  </i>
   <i type="logical" name="LRHFCALC"> F  </i>
   <i type="logical" name="LTHOMAS"> F  </i>
   <i type="logical" name="LMODELHF"> F  </i>
   <i type="logical" name="LFOCKACE"> F  </i>
   <i name="ENCUT4O">     -1.00000000</i>
   <i type="int" name="EXXOEP">     0</i>
   <i type="int" name="FOURORBIT">     0</i>
   <i name="AEXX">      0.00000000</i>
   <i name="HFALPHA">      0.00000000</i>
   <i name="MCALPHA">      0.00000000</i>
   <i name="ALDAX">      1.00000000</i>
   <i name="AGGAX">      1.00000000</i>
   <i name="ALDAC">      1.00000000</i>
   <i name="AGGAC">      1.00000000</i>
   <i type="int" name="NKREDX">     1</i>
   <i type="int" name="NKREDY">     1</i>
   <i type="int" name="NKREDZ">     1</i>
   <i type="logical" name="SHIFTRED"> F  </i>
   <i type="logical" name="ODDONLY"> F  </i>
   <i type="logical" name="EVENONLY"> F  </i>
   <i type="int" name="LMAXFOCK">     0</i>
   <i type="int" name="NMAXFOCKAE">     0</i>
   <i type="logical" name="LFOCKAEDFT"> F  </i>
   <i name="HFSCREEN">      0.00000000</i>
   <i name="HFSCREENC">      0.00000000</i>
   <i type="int" name="NBANDSGWLOW">     0</i>
  </separator>
  <separator name="vdW DFT" >
   <i type="logical" name="LUSE_VDW"> F  </i>
   <i name="Zab_VDW">     -0.84910000</i>
   <i name="PARAM1">      0.12340000</i>
   <i name="PARAM2">      1.00000000</i>
   <i name="PARAM3">      0.00000000</i>
  </separator>
  <separator name="model GW" >
   <i type="int" name="MODEL_GW">     0</i>
   <i name="MODEL_EPS0">      3.43903069</i>
   <i name="MODEL_ALPHA">      1.00000000</i>
  </separator>
  <separator name="linear response parameters" >
   <i type="logical" name="LEPSILON"> F  </i>
   <i type="logical" name="LRPA"> F  </i>
   <i type="logical" name="LNABLA"> F  </i>
   <i type="logical" name="LVEL"> F  </i>
   <i type="int" name="KINTER">     0</i>
   <i name="CSHIFT">      0.10000000</i>
   <i name="OMEGAMAX">     -1.00000000</i>
   <i name="DEG_THRESHOLD">      0.00200000</i>
   <i name="RTIME">     -0.10000000</i>
   <i name="WPLASMAI">      0.00000000</i>
   <v name="DFIELD">      0.00000000      0.00000000      0.00000000</v>
   <v name="WPLASMA">      0.00000000      0.00000000      0.00000000      0.00000000      0.00000000      0.00000000      0.00000000      0.00000000      0.00000000</v>
  </separator>
  <separator name="orbital magnetization" >
   <i type="logical" name="NUCIND"> F  </i>
   <v name="MAGPOS">      0.00000000      0.00000000      0.00000000</v>
   <i type="logical" name="LNICSALL"> T  </i>
   <i type="logical" name="ORBITALMAG"> F  </i>
   <i type="logical" name="LMAGBLOCH"> F  </i>
   <i type="logical" name="LCHIMAG"> F  </i>
   <i type="logical" name="LGAUGE"> T  </i>
   <i type="int" name="MAGATOM">     0</i>
   <v name="MAGDIPOL">      0.00000000      0.00000000      0.00000000</v>
   <v name="AVECCONST">      0.00000000      0.00000000      0.00000000</v>
  </separator>
  <separator name="response functions" >
   <i type="logical" name="LFINITE_TEMPERATURE"> F  </i>
   <i type="logical" name="LADDER"> F  </i>
   <i type="logical" name="LRPAFORCE"> F  </i>
   <i type="logical" name="LFXC"> F  </i>
   <i type="logical" name="LHARTREE"> T  </i>
   <i type="int" name="IBSE">     0</i>
   <v type="int" name="KPOINT">    -1     0     0     0</v>
   <i type="logical" name="LTCTC"> F  </i>
   <i type="logical" name="LTCTE"> F  </i>
   <i type="logical" name="LTETE"> F  </i>
   <i type="logical" name="LTRIPLET"> F  </i>
   <i type="logical" name="LFXCEPS"> F  </i>
   <i type="logical" name="LFXHEG"> F  </i>
   <i type="int" name="NATURALO">     2</i>
   <i type="logical" name="LHOLEGF"> F  </i>
   <i type="logical" name="L2ORDER"> F  </i>
   <i type="logical" name="LDMP1"> F  </i>
   <i type="logical" name="LMP2LT"> F  </i>
   <i type="logical" name="LSMP2LT"> F  </i>
   <i type="logical" name="LGWLF"> F  </i>
   <i name="ENCUTGW">     -2.00000000</i>
   <i name="ENCUTGWSOFT">     -2.00000000</i>
   <i name="ENCUTLF">     -1.00000000</i>
   <i type="logical" name="LESF_SPLINES"> F  </i>
   <i type="int" name="LMAXMP2">    -1</i>
   <i name="SCISSOR">      0.00000000</i>
   <i type="int" name="NOMEGA">     0</i>
   <i type="int" name="NOMEGAR">     0</i>
   <i type="int" name="NBANDSGW">    -1</i>
   <i type="int" name="NBANDSO">    -1</i>
   <i type="int" name="NBANDSV">    -1</i>
   <i type="int" name="NELM">     1</i>
   <i type="int" name="NELMHF">     1</i>
   <i type="int" name="DIM">     3</i>
   <i type="int" name="IESPILON">     4</i>
   <i type="int" name="ANTIRES">     0</i>
   <i name="OMEGAMAX">    -30.00000000</i>
   <i name="OMEGAMIN">    -30.00000000</i>
   <i name="OMEGATL">   -200.00000000</i>
   <i type="int" name="OMEGAGRID">     0</i>
   <i name="CSHIFT">     -0.10000000</i>
   <i type="logical" name="LSELFENERGY"> F  </i>
   <i type="logical" name="LSPECTRAL"> F  </i>
   <i type="logical" name="LSPECTRALGW"> F  </i>
   <i type="logical" name="LSINGLES"> F  </i>
   <i type="logical" name="LFERMIGW"> F  </i>
   <i type="logical" name="ODDONLYGW"> F  </i>
   <i type="logical" name="EVENONLYGW"> F  </i>
   <i type="int" name="NKREDLFX">     1</i>
   <i type="int" name="NKREDLFY">     1</i>
   <i type="int" name="NKREDLFZ">     1</i>
   <i type="int" name="MAXMEM">  2800</i>
   <i type="int" name="TELESCOPE">     0</i>
   <i type="int" name="NTAUPAR">    -1</i>
   <i type="int" name="NOMEGAPAR">    -1</i>
   <i name="DAMP_NEWTON">      0.80000001</i>
   <i name="LAMBDA">      1.00000000</i>
  </separator>
  <separator name="External order field" >
   <i name="OFIELD_KAPPA">      0.00000000</i>
   <v name="OFIELD_K">      0.00000000      0.00000000      0.00000000</v>
   <i name="OFIELD_Q6_NEAR">      0.00000000</i>
   <i name="OFIELD_Q6_FAR">      0.00000000</i>
   <i name="OFIELD_A">      0.00000000</i>
  </separator>
 </parameters>
 <atominfo>
  <atoms>       4 </atoms>
  <types>       1 </types>
  <array name="atoms" >
   <dimension dim="1">ion</dimension>
   <field type="string">element</field>
   <field type="int">atomtype</field>
   <set>
    <rc><c>C </c><c>   1</c></rc>
    <rc><c>C </c><c>   1</c></rc>
    <rc><c>C </c><c>   1</c></rc>
    <rc><c>C </c><c>   1</c></rc>
   </set>
  </array>
  <array name="atomtypes" >
   <dimension dim="1">type</dimension>
   <field type="int">atomspertype</field>
   <field type="string">element</field>
   <field>mass</field>
   <field>valence</field>
   <field type="string">pseudopotential</field>
   <set>
    <rc><c>   4</c><c>C </c><c>     12.01100000</c><c>      4.00000000</c><c>  PAW_PBE C 08Apr2002                   </c></rc>
   </set>
  </array>
 </atominfo>
 <structure name="initialpos" >
  <crystal>
   <varray name="basis" >
    <v>       2.51652004       0.00000000       0.98144281 </v>
    <v>      -1.25826002       2.17937028      -0.49072141 </v>
    <v>       0.00000000       0.00000000       4.18035704 </v>
   </varray>
   <i name="volume">     22.92687127 </i>
   <varray name="rec_basis" >
    <v>       0.39737415       0.22942407       0.00000000 </v>
    <v>       0.00000000       0.45884814       0.00000000 </v>
    <v>      -0.09329347       0.00000000       0.23921402 </v>
   </varray>
  </crystal>
  <varray name="positions" >
   <v>       0.33333333       0.66666667       0.06219378 </v>
   <v>       0.66666667       0.33333333       0.93780622 </v>
   <v>       0.66666667       0.33333333       0.56219378 </v>
   <v>       0.33333333       0.66666667       0.43780622 </v>
  </varray>
  <varray name="selective"  type="logical" >
   <v type="logical" >  T  T  T </v>
   <v type="logical" >  T  T  T </v>
   <v type="logical" >  T  T  T </v>
   <v type="logical" >  T  T  T </v>
  </varray>
  <nose>
   <v>      -3.00000000       0.00000000       0.00010000       0.00010000 </v>
  </nose>
 </structure>
 <calculation>
  <scstep>
   <time name="dav">    0.13    0.13</time>
   <time name="total">    0.15    0.15</time>
   <energy>
    <i name="alphaZ">     57.32781593 </i>
    <i name="ewald">   -694.65287063 </i>
    <i name="hartreedc">    -35.52476200 </i>
    <i name="XCdc">     54.61113475 </i>
    <i name="pawpsdc">    434.08818552 </i>
    <i name="pawaedc">   -436.36580876 </i>
    <i name="eentropy">     -0.00734029 </i>
    <i name="bandstr">     70.74549802 </i>
    <i name="atom">    588.60115103 </i>
    <i name="e_fr_energy">     38.82300357 </i>
    <i name="e_wo_entrp">     38.83034387 </i>
    <i name="e_0_energy">     38.82667372 </i>
   </energy>
  </scstep>
  <scstep>
   <time name="dav">    0.18    0.18</time>
   <time name="total">    0.18    0.18</time>
   <energy>
    <i name="e_fr_energy">    -30.51824554 </i>
    <i name="e_wo_entrp">    -30.51824554 </i>
    <i name="e_0_energy">    -30.51824554 </i>
   </energy>
  </scstep>
  <scstep>
   <time name="dav">    0.17    0.17</time>
   <time name="total">    0.17    0.17</time>
   <energy>
    <i name="e_fr_energy">    -32.88208150 </i>
    <i name="e_wo_entrp">    -32.88208150 </i>
    <i name="e_0_energy">    -32.88208150 </i>
   </energy>
  </scstep>
  <scstep>
   <time name="dav">    0.17    0.17</time>
   <time name="total">    0.17    0.17</time>
   <energy>
    <i name="e_fr_energy">    -32.90710607 </i>
    <i name="e_wo_entrp">    -32.90710607 </i>
    <i name="e_0_energy">    -32.90710607 </i>
   </energy>
  </scstep>
  <scstep>
   <time name="dav">    0.18    0.18</time>
   <time name="total">    0.20    0.20</time>
   <energy>
    <i name="e_fr_energy">    -32.90768551 </i>
    <i name="e_wo_entrp">    -32.90768551 </i>
    <i name="e_0_energy">    -32.90768551 </i>
   </energy>
  </scstep>
  <scstep>
   <time name="dav">    0.16    0.16</time>
   <time name="total">    0.21    0.21</time>
   <energy>
    <i name="e_fr_energy">    -31.97794358 </i>
    <i name="e_wo_entrp">    -31.97794358 </i>
    <i name="e_0_energy">    -31.97794358 </i>
   </energy>
  </scstep>
  <scstep>
   <time name="dav">    0.17    0.17</time>
   <time name="total">    0.23    0.23</time>
   <energy>
    <i name="e_fr_energy">    -31.68278985 </i>
    <i name="e_wo_entrp">    -31.68278985 </i>
    <i name="e_0_energy">    -31.68278985 </i>
   </energy>
  </scstep>
  <scstep>
   <time name="dav">    0.17    0.17</time>
   <time name="total">    0.22    0.22</time>
   <energy>
    <i name="e_fr_energy">    -31.68486026 </i>
    <i name="e_wo_entrp">    -31.68486026 </i>
    <i name="e_0_energy">    -31.68486026 </i>
   </energy>
  </scstep>
  <scstep>
   <time name="dav">    0.18    0.18</time>
   <time name="total">    0.23    0.23</time>
   <energy>
    <i name="e_fr_energy">    -31.68486461 </i>
    <i name="e_wo_entrp">    -31.68486461 </i>
    <i name="e_0_energy">    -31.68486461 </i>
   </energy>
  </scstep>
  <scstep>
   <time name="dav">    0.17    0.17</time>
   <time name="total">    0.22    0.22</time>
   <energy>
    <i name="e_fr_energy">    -31.68489145 </i>
    <i name="e_wo_entrp">    -31.68489145 </i>
    <i name="e_0_energy">    -31.68489145 </i>
   </energy>
  </scstep>
  <scstep>
   <time name="dav">    0.19    0.19</time>
   <time name="total">    0.23    0.23</time>
   <energy>
    <i name="e_fr_energy">    -31.68489444 </i>
    <i name="e_wo_entrp">    -31.68489444 </i>
    <i name="e_0_energy">    -31.68489444 </i>
   </energy>
  </scstep>
  <scstep>
   <time name="dav">    0.14    0.14</time>
   <time name="total">    0.17    0.17</time>
   <energy>
    <i name="alphaZ">     57.32781593 </i>
    <i name="ewald">   -694.65287063 </i>
    <i name="hartreedc">    -51.53079046 </i>
    <i name="XCdc">     56.03083279 </i>
    <i name="pawpsdc">   1420.89186447 </i>
    <i name="pawaedc">  -1423.55926082 </i>
    <i name="eentropy">     -0.00000000 </i>
    <i name="bandstr">     15.20636273 </i>
    <i name="atom">    588.60115103 </i>
    <i name="e_fr_energy">    -31.68489496 </i>
    <i name="e_wo_entrp">    -31.68489496 </i>
    <i name="e_0_energy">    -31.68489496 </i>
   </energy>
  </scstep>
  <structure>
   <crystal>
    <varray name="basis" >
     <v>       2.51652004       0.00000000       0.98144281 </v>
     <v>      -1.25826002       2.17937028      -0.49072141 </v>
     <v>       0.00000000       0.00000000       4.18035704 </v>
    </varray>
    <i name="volume">     22.92687127 </i>
    <varray name="rec_basis" >
     <v>       0.39737415       0.22942407       0.00000000 </v>
     <v>       0.00000000       0.45884814       0.00000000 </v>
     <v>      -0.09329347       0.00000000       0.23921402 </v>
    </varray>
   </crystal>
   <varray name="positions" >
    <v>       0.33333333       0.66666667       0.06219378 </v>
    <v>       0.66666667       0.33333333       0.93780622 </v>
    <v>       0.66666667       0.33333333       0.56219378 </v>
    <v>       0.33333333       0.66666667       0.43780622 </v>
   </varray>
  </structure>
  <varray name="forces" >
   <v>      -0.13180974       2.24350758       1.21753421 </v>
   <v>       0.13180974      -2.24350758      -1.21753421 </v>
   <v>      -0.13180974      -2.24350758       1.21753421 </v>
   <v>       0.13180974       2.24350758      -1.21753421 </v>
  </varray>
  <varray name="stress" >
   <v>     322.51219684      -0.00000000   -1498.85921088 </v>
   <v>      -0.00000000     127.73597732      -0.00000000 </v>
   <v>   -1498.85921114      -0.00000000     -10.94781381 </v>
  </varray>
  <energy>
   <i name="e_fr_energy">    -31.68489496 </i>
   <i name="e_wo_entrp">    -31.68489496 </i>
   <i name="e_0_energy">    -31.68489496 </i>
  </energy>
  <time name="totalsc">    2.57    2.57</time>
 </calculation>
 <calculation>
  <scstep>
   <time name="dav">    0.16    0.16</time>
   <time name="total">    0.21    0.21</time>
   <energy>
    <i name="alphaZ">     57.32781593 </i>
    <i name="ewald">   -686.24264960 </i>
    <i name="hartreedc">    -54.33745368 </i>
    <i name="XCdc">     56.20614510 </i>
    <i name="pawpsdc">   1420.99482499 </i>
    <i name="pawaedc">  -1423.66221558 </i>
    <i name="eentropy">     -0.00000128 </i>
    <i name="bandstr">      9.82857550 </i>
    <i name="atom">    588.60115103 </i>
    <i name="e_fr_energy">    -31.28380757 </i>
    <i name="e_wo_entrp">    -31.28380630 </i>
    <i name="e_0_energy">    -31.28380694 </i>
   </energy>
  </scstep>
  <scstep>
   <time name="dav">    0.18    0.18</time>
   <time name="total">    0.23    0.23</time>
   <energy>
    <i name="e_fr_energy">    -31.48512822 </i>
    <i name="e_wo_entrp">    -31.48512813 </i>
    <i name="e_0_energy">    -31.48512817 </i>
   </energy>
  </scstep>
  <scstep>
   <time name="dav">    0.17    0.17</time>
   <time name="total">    0.22    0.22</time>
   <energy>
    <i name="e_fr_energy">    -31.43916735 </i>
    <i name="e_wo_entrp">    -31.43916735 </i>
    <i name="e_0_energy">    -31.43916735 </i>
   </energy>
  </scstep>
  <scstep>
   <time name="dav">    0.19    0.19</time>
   <time name="total">    0.23    0.23</time>
   <energy>
    <i name="e_fr_energy">    -31.43571751 </i>
    <i name="e_wo_entrp">    -31.43571751 </i>
    <i name="e_0_energy">    -31.43571751 </i>
   </energy>
  </scstep>
  <scstep>
   <time name="dav">    0.17    0.17</time>
   <time name="total">    0.22    0.22</time>
   <energy>
    <i name="e_fr_energy">    -31.43588383 </i>
    <i name="e_wo_entrp">    -31.43588383 </i>
    <i name="e_0_energy">    -31.43588383 </i>
   </energy>
  </scstep>
  <scstep>
   <time name="dav">    0.19    0.19</time>
   <time name="total">    0.24    0.24</time>
   <energy>
    <i name="e_fr_energy">    -31.43587477 </i>
    <i name="e_wo_entrp">    -31.43587477 </i>
    <i name="e_0_energy">    -31.43587477 </i>
   </energy>
  </scstep>
  <scstep>
   <time name="dav">    0.19    0.19</time>
   <time name="total">    0.24    0.24</time>
   <energy>
    <i name="e_fr_energy">    -31.43587605 </i>
    <i name="e_wo_entrp">    -31.43587604 </i>
    <i name="e_0_energy">    -31.43587605 </i>
   </energy>
  </scstep>
  <scstep>
   <time name="dav">    0.13    0.13</time>
   <time name="total">    0.16    0.16</time>
   <energy>
    <i name="alphaZ">     57.32781593 </i>
    <i name="ewald">   -686.24264960 </i>
    <i name="hartreedc">    -55.78683248 </i>
    <i name="XCdc">     56.31523973 </i>
    <i name="pawpsdc">   1542.39261968 </i>
    <i name="pawaedc">  -1545.10574497 </i>
    <i name="eentropy">     -0.00000000 </i>
    <i name="bandstr">     11.06252446 </i>
    <i name="atom">    588.60115103 </i>
    <i name="e_fr_energy">    -31.43587621 </i>
    <i name="e_wo_entrp">    -31.43587621 </i>
    <i name="e_0_energy">    -31.43587621 </i>
   </energy>
  </scstep>
  <structure>
   <crystal>
    <varray name="basis" >
     <v>       2.51652004       0.00000000       0.98144281 </v>
     <v>      -1.25826002       2.17937028      -0.49072141 </v>
     <v>       0.00000000       0.00000000       4.18035704 </v>
    </varray>
    <i name="volume">     22.92687127 </i>
    <varray name="rec_basis" >
     <v>       0.39737415       0.22942407       0.00000000 </v>
     <v>       0.00000000       0.45884814       0.00000000 </v>
     <v>      -0.09329347       0.00000000       0.23921402 </v>
    </varray>
   </crystal>
   <varray name="positions" >
    <v>       0.35563769       0.71632907       0.07683775 </v>
    <v>       0.64436231       0.28367093       0.92316225 </v>
    <v>       0.63930862       0.28367093       0.57683775 </v>
    <v>       0.36069138       0.71632907       0.42316225 </v>
   </varray>
  </structure>
  <varray name="forces" >
   <v>       2.48408889      -3.39700641      -0.08850290 </v>
   <v>      -2.48408889       3.39700641       0.08850290 </v>
   <v>       2.48408889       3.39700641      -0.08850290 </v>
   <v>      -2.48408889      -3.39700641       0.08850290 </v>
  </varray>
  <varray name="stress" >
   <v>     215.08103418      -0.00000000   -1005.26503678 </v>
   <v>      -0.00000000     440.00239210      -0.00000000 </v>
   <v>   -1005.26503667      -0.00000000     398.28736750 </v>
  </varray>
  <energy>
   <i name="e_fr_energy">    -31.43587621 </i>
   <i name="e_wo_entrp">    -31.43587621 </i>
   <i name="e_0_energy">    -31.43587621 </i>
  </energy>
  <time name="totalsc">    1.95    1.95</time>
 </calculation>
 <calculation>
  <scstep>
   <time name="dav">    0.15    0.15</time>
   <time name="total">    0.20    0.20</time>
   <energy>
    <i name="alphaZ">     57.32781593 </i>
    <i name="ewald">   -692.81057087 </i>
    <i name="hartreedc">    -52.95270191 </i>
    <i name="XCdc">     56.13954490 </i>
    <i name="pawpsdc">   1542.40199274 </i>
    <i name="pawaedc">  -1545.11512501 </i>
    <i name="eentropy">     -0.00000000 </i>
    <i name="bandstr">     14.50175323 </i>
    <i name="atom">    588.60115103 </i>
    <i name="e_fr_energy">    -31.90613996 </i>
    <i name="e_wo_entrp">    -31.90613996 </i>
    <i name="e_0_energy">    -31.90613996 </i>
   </energy>
  </scstep>
  <scstep>
   <time name="dav">    0.19    0.19</time>
   <time name="total">    0.23    0.23</time>
   <energy>
    <i name="e_fr_energy">    -31.95561739 </i>
    <i name="e_wo_entrp">    -31.95561739 </i>
    <i name="e_0_energy">    -31.95561739 </i>
   </energy>
  </scstep>
  <scstep>
   <time name="dav">    0.17    0.17</time>
   <time name="total">    0.21    0.21</time>
   <energy>
    <i name="e_fr_energy">    -31.93589018 </i>
    <i name="e_wo_entrp">    -31.93589018 </i>
    <i name="e_0_energy">    -31.93589018 </i>
   </energy>
  </scstep>
  <scstep>
   <time name="dav">    0.20    0.20</time>
   <time name="total">    0.24    0.24</time>
   <energy>
    <i name="e_fr_energy">    -31.93632318 </i>
    <i name="e_wo_entrp">    -31.93632318 </i>
    <i name="e_0_energy">    -31.93632318 </i>
   </energy>
  </scstep>
  <scstep>
   <time name="dav">    0.18    0.18</time>
   <time name="total">    0.22    0.22</time>
   <energy>
    <i name="e_fr_energy">    -31.93632112 </i>
    <i name="e_wo_entrp">    -31.93632112 </i>
    <i name="e_0_energy">    -31.93632112 </i>
   </energy>
  </scstep>
  <scstep>
   <time name="dav">    0.18    0.18</time>
   <time name="total">    0.22    0.22</time>
   <energy>
    <i name="e_fr_energy">    -31.93631624 </i>
    <i name="e_wo_entrp">    -31.93631624 </i>
    <i name="e_0_energy">    -31.93631624 </i>
   </energy>
  </scstep>
  <scstep>
   <time name="dav">    0.15    0.15</time>
   <time name="total">    0.18    0.18</time>
   <energy>
    <i name="alphaZ">     57.32781593 </i>
    <i name="ewald">   -692.81057087 </i>
    <i name="hartreedc">    -52.52502989 </i>
    <i name="XCdc">     56.09927247 </i>
    <i name="pawpsdc">   1448.86281811 </i>
    <i name="pawaedc">  -1451.53704058 </i>
    <i name="eentropy">     -0.00000000 </i>
    <i name="bandstr">     14.04526768 </i>
    <i name="atom">    588.60115103 </i>
    <i name="e_fr_energy">    -31.93631612 </i>
    <i name="e_wo_entrp">    -31.93631612 </i>
    <i name="e_0_energy">    -31.93631612 </i>
   </energy>
  </scstep>
  <structure>
   <crystal>
    <varray name="basis" >
     <v>       2.51652004       0.00000000       0.98144281 </v>
     <v>      -1.25826002       2.17937028      -0.49072141 </v>
     <v>       0.00000000       0.00000000       4.18035704 </v>
    </varray>
    <i name="volume">     22.92687127 </i>
    <varray name="rec_basis" >
     <v>       0.39737415       0.22942407       0.00000000 </v>
     <v>       0.00000000       0.45884814       0.00000000 </v>
     <v>      -0.09329347       0.00000000       0.23921402 </v>
    </varray>
   </crystal>
   <varray name="positions" >
    <v>       0.34216114       0.68632247       0.06798969 </v>
    <v>       0.65783886       0.31367753       0.93201031 </v>
    <v>       0.65583867       0.31367753       0.56798969 </v>
    <v>       0.34416133       0.68632247       0.43201031 </v>
   </varray>
  </structure>
  <varray name="forces" >
   <v>       1.00627138      -0.18784390       0.52891182 </v>
   <v>      -1.00627138       0.18784390      -0.52891182 </v>
   <v>       1.00627138       0.18784390       0.52891182 </v>
   <v>      -1.00627138      -0.18784390      -0.52891182 </v>
  </varray>
  <varray name="stress" >
   <v>     243.53671750      -0.00000000   -1330.52944828 </v>
   <v>      -0.00000000     208.69898337      -0.00000000 </v>
   <v>   -1330.52944880      -0.00000000      82.64586560 </v>
  </varray>
  <energy>
   <i name="e_fr_energy">    -31.93631612 </i>
   <i name="e_wo_entrp">    -31.93631612 </i>
   <i name="e_0_energy">    -31.93631612 </i>
  </energy>
  <time name="totalsc">    1.69    1.69</time>
 </calculation>
 <calculation>
  <scstep>
   <time name="dav">    0.15    0.15</time>
   <time name="total">    0.19    0.19</time>
   <energy>
    <i name="alphaZ">     57.32781593 </i>
    <i name="ewald">   -685.29917011 </i>
    <i name="hartreedc">    -55.90083562 </i>
    <i name="XCdc">     56.29514204 </i>
    <i name="pawpsdc">   1448.81216447 </i>
    <i name="pawaedc">  -1451.48637466 </i>
    <i name="eentropy">     -0.00000000 </i>
    <i name="bandstr">      9.62506659 </i>
    <i name="atom">    588.60115103 </i>
    <i name="e_fr_energy">    -32.02504033 </i>
    <i name="e_wo_entrp">    -32.02504033 </i>
    <i name="e_0_energy">    -32.02504033 </i>
   </energy>
  </scstep>
  <scstep>
   <time name="dav">    0.18    0.18</time>
   <time name="total">    0.22    0.22</time>
   <energy>
    <i name="e_fr_energy">    -32.04657345 </i>
    <i name="e_wo_entrp">    -32.04657345 </i>
    <i name="e_0_energy">    -32.04657345 </i>
   </energy>
  </scstep>
  <scstep>
   <time name="dav">    0.16    0.16</time>
   <time name="total">    0.21    0.21</time>
   <energy>
    <i name="e_fr_energy">    -32.03938733 </i>
    <i name="e_wo_entrp">    -32.03938733 </i>
    <i name="e_0_energy">    -32.03938733 </i>
   </energy>
  </scstep>
  <scstep>
   <time name="dav">    0.18    0.18</time>
   <time name="total">    0.22    0.22</time>
   <energy>
    <i name="e_fr_energy">    -32.03957180 </i>
    <i name="e_wo_entrp">    -32.03957180 </i>
    <i name="e_0_energy">    -32.03957180 </i>
   </energy>
  </scstep>
  <scstep>
   <time name="dav">    0.17    0.17</time>
   <time name="total">    0.22    0.22</time>
   <energy>
    <i name="e_fr_energy">    -32.03957993 </i>
    <i name="e_wo_entrp">    -32.03957993 </i>
    <i name="e_0_energy">    -32.03957993 </i>
   </energy>
  </scstep>
  <scstep>
   <time name="dav">    0.18    0.18</time>
   <time name="total">    0.22    0.22</time>
   <energy>
    <i name="e_fr_energy">    -32.03958159 </i>
    <i name="e_wo_entrp">    -32.03958159 </i>
    <i name="e_0_energy">    -32.03958159 </i>
   </energy>
  </scstep>
  <scstep>
   <time name="dav">    0.12    0.12</time>
   <time name="total">    0.15    0.15</time>
   <energy>
    <i name="alphaZ">     57.32781593 </i>
    <i name="ewald">   -685.29917011 </i>
    <i name="hartreedc">    -56.99144756 </i>
    <i name="XCdc">     56.37424669 </i>
    <i name="pawpsdc">   1548.01856630 </i>
    <i name="pawaedc">  -1550.72994967 </i>
    <i name="eentropy">     -0.00000000 </i>
    <i name="bandstr">     10.65920581 </i>
    <i name="atom">    588.60115103 </i>
    <i name="e_fr_energy">    -32.03958159 </i>
    <i name="e_wo_entrp">    -32.03958159 </i>
    <i name="e_0_energy">    -32.03958159 </i>
   </energy>
  </scstep>
  <structure>
   <crystal>
    <varray name="basis" >
     <v>       2.51652004       0.00000000       0.98144281 </v>
     <v>      -1.25826002       2.17937028      -0.49072141 </v>
     <v>       0.00000000       0.00000000       4.18035704 </v>
    </varray>
    <i name="volume">     22.92687127 </i>
    <varray name="rec_basis" >
     <v>       0.39737415       0.22942407       0.00000000 </v>
     <v>       0.00000000       0.45884814       0.00000000 </v>
     <v>      -0.09329347       0.00000000       0.23921402 </v>
    </varray>
   </crystal>
   <varray name="positions" >
    <v>       0.36100780       0.69093855       0.07181333 </v>
    <v>       0.63899220       0.30906145       0.92818667 </v>
    <v>       0.67006925       0.30906145       0.57181333 </v>
    <v>       0.32993075       0.69093855       0.42818667 </v>
   </varray>
  </structure>
  <varray name="forces" >
   <v>       0.14927742       0.52600563      -0.37776219 </v>
   <v>      -0.14927742      -0.52600563       0.37776219 </v>
   <v>       0.14927742      -0.52600563      -0.37776219 </v>
   <v>      -0.14927742       0.52600563       0.37776219 </v>
  </varray>
  <varray name="stress" >
   <v>     416.89232467      -0.00000000   -1144.16305014 </v>
   <v>      -0.00000000     212.13621313      -0.00000000 </v>
   <v>   -1144.16305011      -0.00000000     335.92815462 </v>
  </varray>
  <energy>
   <i name="e_fr_energy">    -32.03958159 </i>
   <i name="e_wo_entrp">    -32.03958159 </i>
   <i name="e_0_energy">    -32.03958159 </i>
  </energy>
  <time name="totalsc">    1.62    1.62</time>
 </calculation>
 <calculation>
  <scstep>
   <time name="dav">    0.17    0.17</time>
   <time name="total">    0.22    0.22</time>
   <energy>
    <i name="alphaZ">     57.32781593 </i>
    <i name="ewald">   -685.42153775 </i>
    <i name="hartreedc">    -56.93614021 </i>
    <i name="XCdc">     56.37103369 </i>
    <i name="pawpsdc">   1548.00483556 </i>
    <i name="pawaedc">  -1550.71621989 </i>
    <i name="eentropy">     -0.00000000 </i>
    <i name="bandstr">     10.72946148 </i>
    <i name="atom">    588.60115103 </i>
    <i name="e_fr_energy">    -32.03960015 </i>
    <i name="e_wo_entrp">    -32.03960015 </i>
    <i name="e_0_energy">    -32.03960015 </i>
   </energy>
  </scstep>
  <scstep>
   <time name="dav">    0.20    0.20</time>
   <time name="total">    0.25    0.25</time>
   <energy>
    <i name="e_fr_energy">    -32.03960279 </i>
    <i name="e_wo_entrp">    -32.03960279 </i>
    <i name="e_0_energy">    -32.03960279 </i>
   </energy>
  </scstep>
  <scstep>
   <time name="dav">    0.17    0.17</time>
   <time name="total">    0.22    0.22</time>
   <energy>
    <i name="e_fr_energy">    -32.03960064 </i>
    <i name="e_wo_entrp">    -32.03960064 </i>
    <i name="e_0_energy">    -32.03960064 </i>
   </energy>
  </scstep>
  <scstep>
   <time name="dav">    0.11    0.11</time>
   <time name="total">    0.14    0.14</time>
   <energy>
    <i name="alphaZ">     57.32781593 </i>
    <i name="ewald">   -685.42153775 </i>
    <i name="hartreedc">    -56.91896233 </i>
    <i name="XCdc">     56.36977351 </i>
    <i name="pawpsdc">   1546.47001694 </i>
    <i name="pawaedc">  -1549.18076093 </i>
    <i name="eentropy">     -0.00000000 </i>
    <i name="bandstr">     10.71290295 </i>
    <i name="atom">    588.60115103 </i>
    <i name="e_fr_energy">    -32.03960065 </i>
    <i name="e_wo_entrp">    -32.03960065 </i>
    <i name="e_0_energy">    -32.03960065 </i>
   </energy>
  </scstep>
  <structure>
   <crystal>
    <varray name="basis" >
     <v>       2.51652004       0.00000000       0.98144281 </v>
     <v>      -1.25826002       2.17937028      -0.49072141 </v>
     <v>       0.00000000       0.00000000       4.18035704 </v>
    </varray>
    <i name="volume">     22.92687127 </i>
    <varray name="rec_basis" >
     <v>       0.39737415       0.22942407       0.00000000 </v>
     <v>       0.00000000       0.45884814       0.00000000 </v>
     <v>      -0.09329347       0.00000000       0.23921402 </v>
    </varray>
   </crystal>
   <varray name="positions" >
    <v>       0.36072094       0.69086829       0.07175513 </v>
    <v>       0.63927906       0.30913171       0.92824487 </v>
    <v>       0.66985265       0.30913171       0.57175513 </v>
    <v>       0.33014735       0.69086829       0.42824487 </v>
   </varray>
  </structure>
  <varray name="forces" >
   <v>       0.15758989       0.51014768      -0.36230354 </v>
   <v>      -0.15758989      -0.51014768       0.36230354 </v>
   <v>       0.15758989      -0.51014768      -0.36230354 </v>
   <v>      -0.15758989       0.51014768       0.36230354 </v>
  </varray>
  <varray name="stress" >
   <v>     414.17949481      -0.00000000   -1147.14143079 </v>
   <v>      -0.00000000     212.38897328      -0.00000000 </v>
   <v>   -1147.14143062      -0.00000000     331.10137908 </v>
  </varray>
  <energy>
   <i name="e_fr_energy">    -32.03960065 </i>
   <i name="e_wo_entrp">    -32.03960065 </i>
   <i name="e_0_energy">    -32.03960065 </i>
  </energy>
  <time name="totalsc">    1.00    1.00</time>
 </calculation>
 <calculation>
  <scstep>
   <time name="dav">    0.15    0.15</time>
   <time name="total">    0.19    0.19</time>
   <energy>
    <i name="alphaZ">     57.32781593 </i>
    <i name="ewald">   -682.05737987 </i>
    <i name="hartreedc">    -58.33986830 </i>
    <i name="XCdc">     56.45898451 </i>
    <i name="pawpsdc">   1546.29195071 </i>
    <i name="pawaedc">  -1549.00269447 </i>
    <i name="eentropy">     -0.00000000 </i>
    <i name="bandstr">      8.67943489 </i>
    <i name="atom">    588.60115103 </i>
    <i name="e_fr_energy">    -32.04060558 </i>
    <i name="e_wo_entrp">    -32.04060558 </i>
    <i name="e_0_energy">    -32.04060558 </i>
   </energy>
  </scstep>
  <scstep>
   <time name="dav">    0.18    0.18</time>
   <time name="total">    0.22    0.22</time>
   <energy>
    <i name="e_fr_energy">    -32.04808192 </i>
    <i name="e_wo_entrp">    -32.04808192 </i>
    <i name="e_0_energy">    -32.04808192 </i>
   </energy>
  </scstep>
  <scstep>
   <time name="dav">    0.17    0.17</time>
   <time name="total">    0.21    0.21</time>
   <energy>
    <i name="e_fr_energy">    -32.04598070 </i>
    <i name="e_wo_entrp">    -32.04598070 </i>
    <i name="e_0_energy">    -32.04598070 </i>
   </energy>
  </scstep>
  <scstep>
   <time name="dav">    0.17    0.17</time>
   <time name="total">    0.22    0.22</time>
   <energy>
    <i name="e_fr_energy">    -32.04599564 </i>
    <i name="e_wo_entrp">    -32.04599564 </i>
    <i name="e_0_energy">    -32.04599564 </i>
   </energy>
  </scstep>
  <scstep>
   <time name="dav">    0.18    0.18</time>
   <time name="total">    0.23    0.23</time>
   <energy>
    <i name="e_fr_energy">    -32.04599853 </i>
    <i name="e_wo_entrp">    -32.04599853 </i>
    <i name="e_0_energy">    -32.04599853 </i>
   </energy>
  </scstep>
  <scstep>
   <time name="dav">    0.17    0.17</time>
   <time name="total">    0.20    0.20</time>
   <energy>
    <i name="alphaZ">     57.32781593 </i>
    <i name="ewald">   -682.05737987 </i>
    <i name="hartreedc">    -58.82559043 </i>
    <i name="XCdc">     56.49674311 </i>
    <i name="pawpsdc">   1596.65132129 </i>
    <i name="pawaedc">  -1599.38183526 </i>
    <i name="eentropy">     -0.00000000 </i>
    <i name="bandstr">      9.14177615 </i>
    <i name="atom">    588.60115103 </i>
    <i name="e_fr_energy">    -32.04599805 </i>
    <i name="e_wo_entrp">    -32.04599805 </i>
    <i name="e_0_energy">    -32.04599805 </i>
   </energy>
  </scstep>
  <structure>
   <crystal>
    <varray name="basis" >
     <v>       2.51652004       0.00000000       0.98144281 </v>
     <v>      -1.25826002       2.17937028      -0.49072141 </v>
     <v>       0.00000000       0.00000000       4.18035704 </v>
    </varray>
    <i name="volume">     22.92687127 </i>
    <varray name="rec_basis" >
     <v>       0.39737415       0.22942407       0.00000000 </v>
     <v>       0.00000000       0.45884814       0.00000000 </v>
     <v>      -0.09329347       0.00000000       0.23921402 </v>
    </varray>
   </crystal>
   <varray name="positions" >
    <v>       0.37603414       0.70265605       0.06903433 </v>
    <v>       0.62396586       0.29734395       0.93096567 </v>
    <v>       0.67337809       0.29734395       0.56903433 </v>
    <v>       0.32662191       0.70265605       0.43096567 </v>
   </varray>
  </structure>
  <varray name="forces" >
   <v>      -0.08907284      -0.36757843       0.95759201 </v>
   <v>       0.08907284       0.36757843      -0.95759201 </v>
   <v>      -0.08907284       0.36757843       0.95759201 </v>
   <v>       0.08907284      -0.36757843      -0.95759201 </v>
  </varray>
  <varray name="stress" >
   <v>     457.29344182      -0.00000000   -1005.18032493 </v>
   <v>      -0.00000000     280.53620018      -0.00000000 </v>
   <v>   -1005.18032503      -0.00000000     422.53422455 </v>
  </varray>
  <energy>
   <i name="e_fr_energy">    -32.04599805 </i>
   <i name="e_wo_entrp">    -32.04599805 </i>
   <i name="e_0_energy">    -32.04599805 </i>
  </energy>
  <time name="totalsc">    1.45    1.45</time>
 </calculation>
 <calculation>
  <scstep>
   <time name="dav">    0.15    0.15</time>
   <time name="total">    0.19    0.19</time>
   <energy>
    <i name="alphaZ">     57.32781593 </i>
    <i name="ewald">   -683.60532562 </i>
    <i name="hartreedc">    -58.15586933 </i>
    <i name="XCdc">     56.45478338 </i>
    <i name="pawpsdc">   1596.56558104 </i>
    <i name="pawaedc">  -1599.29607273 </i>
    <i name="eentropy">     -0.00000000 </i>
    <i name="bandstr">     10.05026361 </i>
    <i name="atom">    588.60115103 </i>
    <i name="e_fr_energy">    -32.05767268 </i>
    <i name="e_wo_entrp">    -32.05767268 </i>
    <i name="e_0_energy">    -32.05767268 </i>
   </energy>
  </scstep>
  <scstep>
   <time name="dav">    0.18    0.18</time>
   <time name="total">    0.23    0.23</time>
   <energy>
    <i name="e_fr_energy">    -32.05895108 </i>
    <i name="e_wo_entrp">    -32.05895108 </i>
    <i name="e_0_energy">    -32.05895108 </i>
   </energy>
  </scstep>
  <scstep>
   <time name="dav">    0.17    0.17</time>
   <time name="total">    0.22    0.22</time>
   <energy>
    <i name="e_fr_energy">    -32.05846255 </i>
    <i name="e_wo_entrp">    -32.05846255 </i>
    <i name="e_0_energy">    -32.05846255 </i>
   </energy>
  </scstep>
  <scstep>
   <time name="dav">    0.18    0.18</time>
   <time name="total">    0.22    0.22</time>
   <energy>
    <i name="e_fr_energy">    -32.05847770 </i>
    <i name="e_wo_entrp">    -32.05847770 </i>
    <i name="e_0_energy">    -32.05847770 </i>
   </energy>
  </scstep>
  <scstep>
   <time name="dav">    0.17    0.17</time>
   <time name="total">    0.20    0.20</time>
   <energy>
    <i name="alphaZ">     57.32781593 </i>
    <i name="ewald">   -683.60532562 </i>
    <i name="hartreedc">    -57.95084389 </i>
    <i name="XCdc">     56.43854759 </i>
    <i name="pawpsdc">   1573.48477257 </i>
    <i name="pawaedc">  -1576.20588511 </i>
    <i name="eentropy">     -0.00000000 </i>
    <i name="bandstr">      9.85128995 </i>
    <i name="atom">    588.60115103 </i>
    <i name="e_fr_energy">    -32.05847754 </i>
    <i name="e_wo_entrp">    -32.05847754 </i>
    <i name="e_0_energy">    -32.05847754 </i>
   </energy>
  </scstep>
  <structure>
   <crystal>
    <varray name="basis" >
     <v>       2.51652004       0.00000000       0.98144281 </v>
     <v>      -1.25826002       2.17937028      -0.49072141 </v>
     <v>       0.00000000       0.00000000       4.18035704 </v>
    </varray>
    <i name="volume">     22.92687127 </i>
    <varray name="rec_basis" >
     <v>       0.39737415       0.22942407       0.00000000 </v>
     <v>       0.00000000       0.45884814       0.00000000 </v>
     <v>      -0.09329347       0.00000000       0.23921402 </v>
    </varray>
   </crystal>
   <varray name="positions" >
    <v>       0.36906414       0.69729070       0.07027274 </v>
    <v>       0.63093586       0.30270930       0.92972726 </v>
    <v>       0.67177344       0.30270930       0.57027274 </v>
    <v>       0.32822656       0.69729070       0.42972726 </v>
   </varray>
  </structure>
  <varray name="forces" >
   <v>       0.00080971       0.02708025       0.33873716 </v>
   <v>      -0.00080971      -0.02708025      -0.33873716 </v>
   <v>       0.00080971      -0.02708025       0.33873716 </v>
   <v>      -0.00080971       0.02708025      -0.33873716 </v>
  </varray>
  <varray name="stress" >
   <v>     436.38094367      -0.00000000   -1072.23068674 </v>
   <v>      -0.00000000     247.71065929      -0.00000000 </v>
   <v>   -1072.23068674      -0.00000000     381.82254401 </v>
  </varray>
  <energy>
   <i name="e_fr_energy">    -32.05847754 </i>
   <i name="e_wo_entrp">    -32.05847754 </i>
   <i name="e_0_energy">    -32.05847754 </i>
  </energy>
  <time name="totalsc">    1.25    1.25</time>
 </calculation>
 <calculation>
  <scstep>
   <time name="dav">    0.15    0.15</time>
   <time name="total">    0.20    0.20</time>
   <energy>
    <i name="alphaZ">     57.32781593 </i>
    <i name="ewald">   -680.91410432 </i>
    <i name="hartreedc">    -59.12356168 </i>
    <i name="XCdc">     56.50833727 </i>
    <i name="pawpsdc">   1573.27660138 </i>
    <i name="pawaedc">  -1575.99770356 </i>
    <i name="eentropy">     -0.00000014 </i>
    <i name="bandstr">      8.25221592 </i>
    <i name="atom">    588.60115103 </i>
    <i name="e_fr_energy">    -32.06924817 </i>
    <i name="e_wo_entrp">    -32.06924803 </i>
    <i name="e_0_energy">    -32.06924810 </i>
   </energy>
  </scstep>
  <scstep>
   <time name="dav">    0.21    0.21</time>
   <time name="total">    0.27    0.27</time>
   <energy>
    <i name="e_fr_energy">    -32.07165615 </i>
    <i name="e_wo_entrp">    -32.07165602 </i>
    <i name="e_0_energy">    -32.07165609 </i>
   </energy>
  </scstep>
  <scstep>
   <time name="dav">    0.19    0.19</time>
   <time name="total">    0.24    0.24</time>
   <energy>
    <i name="e_fr_energy">    -32.07086541 </i>
    <i name="e_wo_entrp">    -32.07086527 </i>
    <i name="e_0_energy">    -32.07086534 </i>
   </energy>
  </scstep>
  <scstep>
   <time name="dav">    0.20    0.20</time>
   <time name="total">    0.25    0.25</time>
   <energy>
    <i name="e_fr_energy">    -32.07085470 </i>
    <i name="e_wo_entrp">    -32.07085457 </i>
    <i name="e_0_energy">    -32.07085463 </i>
   </energy>
  </scstep>
  <scstep>
   <time name="dav">    0.20    0.20</time>
   <time name="total">    0.25    0.25</time>
   <energy>
    <i name="e_fr_energy">    -32.07085854 </i>
    <i name="e_wo_entrp">    -32.07085841 </i>
    <i name="e_0_energy">    -32.07085847 </i>
   </energy>
  </scstep>
  <scstep>
   <time name="dav">    0.17    0.17</time>
   <time name="total">    0.20    0.20</time>
   <energy>
    <i name="alphaZ">     57.32781593 </i>
    <i name="ewald">   -680.91410432 </i>
    <i name="hartreedc">    -59.51261715 </i>
    <i name="XCdc">     56.53792435 </i>
    <i name="pawpsdc">   1612.49193712 </i>
    <i name="pawaedc">  -1615.22830731 </i>
    <i name="eentropy">     -0.00000013 </i>
    <i name="bandstr">      8.62534252 </i>
    <i name="atom">    588.60115103 </i>
    <i name="e_fr_energy">    -32.07085797 </i>
    <i name="e_wo_entrp">    -32.07085784 </i>
    <i name="e_0_energy">    -32.07085790 </i>
   </energy>
  </scstep>
  <structure>
   <crystal>
    <varray name="basis" >
     <v>       2.51652004       0.00000000       0.98144281 </v>
     <v>      -1.25826002       2.17937028      -0.49072141 </v>
     <v>       0.00000000       0.00000000       4.18035704 </v>
    </varray>
    <i name="volume">     22.92687127 </i>
    <varray name="rec_basis" >
     <v>       0.39737415       0.22942407       0.00000000 </v>
     <v>       0.00000000       0.45884814       0.00000000 </v>
     <v>      -0.09329347       0.00000000       0.23921402 </v>
    </varray>
   </crystal>
   <varray name="positions" >
    <v>       0.37681266       0.70353958       0.07205210 </v>
    <v>       0.62318734       0.29646042       0.92794790 </v>
    <v>       0.67327307       0.29646042       0.57205210 </v>
    <v>       0.32672693       0.70353958       0.42794790 </v>
   </varray>
  </structure>
  <varray name="forces" >
   <v>       0.28007479      -0.15641995       0.04566145 </v>
   <v>      -0.28007479       0.15641995      -0.04566145 </v>
   <v>       0.28007479       0.15641995       0.04566145 </v>
   <v>      -0.28007479      -0.15641995      -0.04566145 </v>
  </varray>
  <varray name="stress" >
   <v>     464.14109551      -0.00000000    -971.15707488 </v>
   <v>      -0.00000000     252.66997193      -0.00000000 </v>
   <v>    -971.15707517      -0.00000000     508.73265029 </v>
  </varray>
  <energy>
   <i name="e_fr_energy">    -32.07085797 </i>
   <i name="e_wo_entrp">    -32.07085784 </i>
   <i name="e_0_energy">    -32.07085790 </i>
  </energy>
  <time name="totalsc">    1.64    1.64</time>
 </calculation>
 <calculation>
  <scstep>
   <time name="dav">    0.16    0.16</time>
   <time name="total">    0.21    0.21</time>
   <energy>
    <i name="alphaZ">     57.32781593 </i>
    <i name="ewald">   -679.46748499 </i>
    <i name="hartreedc">    -60.14047201 </i>
    <i name="XCdc">     56.57532447 </i>
    <i name="pawpsdc">   1612.35951578 </i>
    <i name="pawaedc">  -1615.09586926 </i>
    <i name="eentropy">     -0.00000361 </i>
    <i name="bandstr">      7.76776890 </i>
    <i name="atom">    588.60115103 </i>
    <i name="e_fr_energy">    -32.07225375 </i>
    <i name="e_wo_entrp">    -32.07225014 </i>
    <i name="e_0_energy">    -32.07225194 </i>
   </energy>
  </scstep>
  <scstep>
   <time name="dav">    0.19    0.19</time>
   <time name="total">    0.24    0.24</time>
   <energy>
    <i name="e_fr_energy">    -32.07279457 </i>
    <i name="e_wo_entrp">    -32.07279099 </i>
    <i name="e_0_energy">    -32.07279278 </i>
   </energy>
  </scstep>
  <scstep>
   <time name="dav">    0.19    0.19</time>
   <time name="total">    0.23    0.23</time>
   <energy>
    <i name="e_fr_energy">    -32.07254294 </i>
    <i name="e_wo_entrp">    -32.07253941 </i>
    <i name="e_0_energy">    -32.07254117 </i>
   </energy>
  </scstep>
  <scstep>
   <time name="dav">    0.18    0.18</time>
   <time name="total">    0.23    0.23</time>
   <energy>
    <i name="e_fr_energy">    -32.07254164 </i>
    <i name="e_wo_entrp">    -32.07253811 </i>
    <i name="e_0_energy">    -32.07253987 </i>
   </energy>
  </scstep>
  <scstep>
   <time name="dav">    0.17    0.17</time>
   <time name="total">    0.22    0.22</time>
   <energy>
    <i name="e_fr_energy">    -32.07254365 </i>
    <i name="e_wo_entrp">    -32.07254012 </i>
    <i name="e_0_energy">    -32.07254189 </i>
   </energy>
  </scstep>
  <scstep>
   <time name="dav">    0.13    0.13</time>
   <time name="total">    0.16    0.16</time>
   <energy>
    <i name="alphaZ">     57.32781593 </i>
    <i name="ewald">   -679.46748499 </i>
    <i name="hartreedc">    -60.35651073 </i>
    <i name="XCdc">     56.59176049 </i>
    <i name="pawpsdc">   1633.75571552 </i>
    <i name="pawaedc">  -1636.50062762 </i>
    <i name="eentropy">     -0.00000353 </i>
    <i name="bandstr">      7.97564040 </i>
    <i name="atom">    588.60115103 </i>
    <i name="e_fr_energy">    -32.07254350 </i>
    <i name="e_wo_entrp">    -32.07253996 </i>
    <i name="e_0_energy">    -32.07254173 </i>
   </energy>
  </scstep>
  <structure>
   <crystal>
    <varray name="basis" >
     <v>       2.51652004       0.00000000       0.98144281 </v>
     <v>      -1.25826002       2.17937028      -0.49072141 </v>
     <v>       0.00000000       0.00000000       4.18035704 </v>
    </varray>
    <i name="volume">     22.92687127 </i>
    <varray name="rec_basis" >
     <v>       0.39737415       0.22942407       0.00000000 </v>
     <v>       0.00000000       0.45884814       0.00000000 </v>
     <v>      -0.09329347       0.00000000       0.23921402 </v>
    </varray>
   </crystal>
   <varray name="positions" >
    <v>       0.38096792       0.70689064       0.07300632 </v>
    <v>       0.61903208       0.29310936       0.92699368 </v>
    <v>       0.67407728       0.29310936       0.57300632 </v>
    <v>       0.32592272       0.70689064       0.42699368 </v>
   </varray>
  </structure>
  <varray name="forces" >
   <v>       0.42410753      -0.23552302      -0.15828555 </v>
   <v>      -0.42410753       0.23552302       0.15828555 </v>
   <v>       0.42410753       0.23552302      -0.15828555 </v>
   <v>      -0.42410753      -0.23552302       0.15828555 </v>
  </varray>
  <varray name="stress" >
   <v>     479.72234403      -0.00000000    -919.62669741 </v>
   <v>      -0.00000000     252.19188912      -0.00000000 </v>
   <v>    -919.62669769      -0.00000000     578.72230397 </v>
  </varray>
  <energy>
   <i name="e_fr_energy">    -32.07254350 </i>
   <i name="e_wo_entrp">    -32.07253996 </i>
   <i name="e_0_energy">    -32.07254173 </i>
  </energy>
  <time name="totalsc">    1.48    1.48</time>
 </calculation>
 <calculation>
  <scstep>
   <time name="dav">    0.16    0.16</time>
   <time name="total">    0.21    0.21</time>
   <energy>
    <i name="alphaZ">     57.32781593 </i>
    <i name="ewald">   -678.37741445 </i>
    <i name="hartreedc">    -60.83682360 </i>
    <i name="XCdc">     56.62021096 </i>
    <i name="pawpsdc">   1633.67959365 </i>
    <i name="pawaedc">  -1636.42449549 </i>
    <i name="eentropy">     -0.00001899 </i>
    <i name="bandstr">      7.33301884 </i>
    <i name="atom">    588.60115103 </i>
    <i name="e_fr_energy">    -32.07696212 </i>
    <i name="e_wo_entrp">    -32.07694313 </i>
    <i name="e_0_energy">    -32.07695262 </i>
   </energy>
  </scstep>
  <scstep>
   <time name="dav">    0.19    0.19</time>
   <time name="total">    0.24    0.24</time>
   <energy>
    <i name="e_fr_energy">    -32.07717969 </i>
    <i name="e_wo_entrp">    -32.07716066 </i>
    <i name="e_0_energy">    -32.07717017 </i>
   </energy>
  </scstep>
  <scstep>
   <time name="dav">    0.19    0.19</time>
   <time name="total">    0.24    0.24</time>
   <energy>
    <i name="e_fr_energy">    -32.07708841 </i>
    <i name="e_wo_entrp">    -32.07706935 </i>
    <i name="e_0_energy">    -32.07707888 </i>
   </energy>
  </scstep>
  <scstep>
   <time name="dav">    0.18    0.18</time>
   <time name="total">    0.23    0.23</time>
   <energy>
    <i name="e_fr_energy">    -32.07708697 </i>
    <i name="e_wo_entrp">    -32.07706791 </i>
    <i name="e_0_energy">    -32.07707744 </i>
   </energy>
  </scstep>
  <scstep>
   <time name="dav">    0.13    0.13</time>
   <time name="total">    0.18    0.18</time>
   <energy>
    <i name="e_fr_energy">    -32.07708816 </i>
    <i name="e_wo_entrp">    -32.07706910 </i>
    <i name="e_0_energy">    -32.07707863 </i>
   </energy>
  </scstep>
  <scstep>
   <time name="dav">    0.12    0.12</time>
   <time name="total">    0.15    0.15</time>
   <energy>
    <i name="alphaZ">     57.32781593 </i>
    <i name="ewald">   -678.37741445 </i>
    <i name="hartreedc">    -61.00861777 </i>
    <i name="XCdc">     56.63299952 </i>
    <i name="pawpsdc">   1649.76780883 </i>
    <i name="pawaedc">  -1652.51919706 </i>
    <i name="eentropy">     -0.00001907 </i>
    <i name="bandstr">      7.49838492 </i>
    <i name="atom">    588.60115103 </i>
    <i name="e_fr_energy">    -32.07708812 </i>
    <i name="e_wo_entrp">    -32.07706905 </i>
    <i name="e_0_energy">    -32.07707859 </i>
   </energy>
  </scstep>
  <structure>
   <crystal>
    <varray name="basis" >
     <v>       2.51652004       0.00000000       0.98144281 </v>
     <v>      -1.25826002       2.17937028      -0.49072141 </v>
     <v>       0.00000000       0.00000000       4.18035704 </v>
    </varray>
    <i name="volume">     22.92687127 </i>
    <varray name="rec_basis" >
     <v>       0.39737415       0.22942407       0.00000000 </v>
     <v>       0.00000000       0.45884814       0.00000000 </v>
     <v>      -0.09329347       0.00000000       0.23921402 </v>
    </varray>
   </crystal>
   <varray name="positions" >
    <v>       0.38436557       0.70861933       0.07326309 </v>
    <v>       0.61563443       0.29138067       0.92673691 </v>
    <v>       0.67574624       0.29138067       0.57326309 </v>
    <v>       0.32425376       0.70861933       0.42673691 </v>
   </varray>
  </structure>
  <varray name="forces" >
   <v>       0.38365730      -0.17821259      -0.21535421 </v>
   <v>      -0.38365730       0.17821259       0.21535421 </v>
   <v>       0.38365730       0.17821259      -0.21535421 </v>
   <v>      -0.38365730      -0.17821259       0.21535421 </v>
  </varray>
  <varray name="stress" >
   <v>     500.48200321      -0.00000000    -888.44857464 </v>
   <v>      -0.00000000     250.02725399      -0.00000000 </v>
   <v>    -888.44857490      -0.00000000     621.89134944 </v>
  </varray>
  <energy>
   <i name="e_fr_energy">    -32.07708812 </i>
   <i name="e_wo_entrp">    -32.07706905 </i>
   <i name="e_0_energy">    -32.07707859 </i>
  </energy>
  <time name="totalsc">    1.43    1.43</time>
 </calculation>
 <calculation>
  <scstep>
   <time name="dav">    0.15    0.15</time>
   <time name="total">    0.20    0.20</time>
   <energy>
    <i name="alphaZ">     57.32781593 </i>
    <i name="ewald">   -675.53471420 </i>
    <i name="hartreedc">    -62.24761400 </i>
    <i name="XCdc">     56.70631911 </i>
    <i name="pawpsdc">   1649.69814442 </i>
    <i name="pawaedc">  -1652.44952946 </i>
    <i name="eentropy">     -0.00446490 </i>
    <i name="bandstr">      5.81809909 </i>
    <i name="atom">    588.60115103 </i>
    <i name="e_fr_energy">    -32.08479297 </i>
    <i name="e_wo_entrp">    -32.08032808 </i>
    <i name="e_0_energy">    -32.08256053 </i>
   </energy>
  </scstep>
  <scstep>
   <time name="dav">    0.18    0.18</time>
   <time name="total">    0.23    0.23</time>
   <energy>
    <i name="e_fr_energy">    -32.08616370 </i>
    <i name="e_wo_entrp">    -32.08189484 </i>
    <i name="e_0_energy">    -32.08402927 </i>
   </energy>
  </scstep>
  <scstep>
   <time name="dav">    0.17    0.17</time>
   <time name="total">    0.22    0.22</time>
   <energy>
    <i name="e_fr_energy">    -32.08541908 </i>
    <i name="e_wo_entrp">    -32.08136812 </i>
    <i name="e_0_energy">    -32.08339360 </i>
   </energy>
  </scstep>
  <scstep>
   <time name="dav">    0.19    0.19</time>
   <time name="total">    0.24    0.24</time>
   <energy>
    <i name="e_fr_energy">    -32.08540215 </i>
    <i name="e_wo_entrp">    -32.08131479 </i>
    <i name="e_0_energy">    -32.08335847 </i>
   </energy>
  </scstep>
  <scstep>
   <time name="dav">    0.18    0.18</time>
   <time name="total">    0.22    0.22</time>
   <energy>
    <i name="e_fr_energy">    -32.08540802 </i>
    <i name="e_wo_entrp">    -32.08130459 </i>
    <i name="e_0_energy">    -32.08335631 </i>
   </energy>
  </scstep>
  <scstep>
   <time name="dav">    0.13    0.13</time>
   <time name="total">    0.16    0.16</time>
   <energy>
    <i name="alphaZ">     57.32781593 </i>
    <i name="ewald">   -675.53471420 </i>
    <i name="hartreedc">    -62.72532376 </i>
    <i name="XCdc">     56.74134478 </i>
    <i name="pawpsdc">   1692.34069109 </i>
    <i name="pawaedc">  -1695.10925800 </i>
    <i name="eentropy">     -0.00410493 </i>
    <i name="bandstr">      6.27699027 </i>
    <i name="atom">    588.60115103 </i>
    <i name="e_fr_energy">    -32.08540779 </i>
    <i name="e_wo_entrp">    -32.08130287 </i>
    <i name="e_0_energy">    -32.08335533 </i>
   </energy>
  </scstep>
  <structure>
   <crystal>
    <varray name="basis" >
     <v>       2.51652004       0.00000000       0.98144281 </v>
     <v>      -1.25826002       2.17937028      -0.49072141 </v>
     <v>       0.00000000       0.00000000       4.18035704 </v>
    </varray>
    <i name="volume">     22.92687127 </i>
    <varray name="rec_basis" >
     <v>       0.39737415       0.22942407       0.00000000 </v>
     <v>       0.00000000       0.45884814       0.00000000 </v>
     <v>      -0.09329347       0.00000000       0.23921402 </v>
    </varray>
   </crystal>
   <varray name="positions" >
    <v>       0.39355318       0.71329387       0.07395743 </v>
    <v>       0.60644682       0.28670613       0.92604257 </v>
    <v>       0.68025931       0.28670613       0.57395743 </v>
    <v>       0.31974069       0.71329387       0.42604257 </v>
   </varray>
  </structure>
  <varray name="forces" >
   <v>       0.37769390      -0.01650258      -0.31978393 </v>
   <v>      -0.37769390       0.01650258       0.31978393 </v>
   <v>       0.37769390       0.01650258      -0.31978393 </v>
   <v>      -0.37769390      -0.01650258       0.31978393 </v>
  </varray>
  <varray name="stress" >
   <v>     561.24454723      -0.00000000    -797.31734192 </v>
   <v>      -0.00000000     233.30748343      -0.00000000 </v>
   <v>    -797.31734187      -0.00000000     741.86083291 </v>
  </varray>
  <energy>
   <i name="e_fr_energy">    -32.08540779 </i>
   <i name="e_wo_entrp">    -32.08130287 </i>
   <i name="e_0_energy">    -32.08335533 </i>
  </energy>
  <time name="totalsc">    1.45    1.45</time>
 </calculation>
 <calculation>
  <scstep>
   <time name="dav">    0.15    0.15</time>
   <time name="total">    0.20    0.20</time>
   <energy>
    <i name="alphaZ">     57.32781593 </i>
    <i name="ewald">   -670.47767564 </i>
    <i name="hartreedc">    -64.88647456 </i>
    <i name="XCdc">     56.86906213 </i>
    <i name="pawpsdc">   1692.18834324 </i>
    <i name="pawaedc">  -1694.95690387 </i>
    <i name="eentropy">     -0.00507746 </i>
    <i name="bandstr">      3.12587625 </i>
    <i name="atom">    588.60115103 </i>
    <i name="e_fr_energy">    -32.21388293 </i>
    <i name="e_wo_entrp">    -32.20880548 </i>
    <i name="e_0_energy">    -32.21134421 </i>
   </energy>
  </scstep>
  <scstep>
   <time name="dav">    0.18    0.18</time>
   <time name="total">    0.23    0.23</time>
   <energy>
    <i name="e_fr_energy">    -32.21612544 </i>
    <i name="e_wo_entrp">    -32.21082446 </i>
    <i name="e_0_energy">    -32.21347495 </i>
   </energy>
  </scstep>
  <scstep>
   <time name="dav">    0.18    0.18</time>
   <time name="total">    0.23    0.23</time>
   <energy>
    <i name="e_fr_energy">    -32.21216107 </i>
    <i name="e_wo_entrp">    -32.20666804 </i>
    <i name="e_0_energy">    -32.20941456 </i>
   </energy>
  </scstep>
  <scstep>
   <time name="dav">    0.19    0.19</time>
   <time name="total">    0.24    0.24</time>
   <energy>
    <i name="e_fr_energy">    -32.21213873 </i>
    <i name="e_wo_entrp">    -32.20667270 </i>
    <i name="e_0_energy">    -32.20940571 </i>
   </energy>
  </scstep>
  <scstep>
   <time name="dav">    0.18    0.18</time>
   <time name="total">    0.22    0.22</time>
   <energy>
    <i name="e_fr_energy">    -32.21216697 </i>
    <i name="e_wo_entrp">    -32.20671945 </i>
    <i name="e_0_energy">    -32.20944321 </i>
   </energy>
  </scstep>
  <scstep>
   <time name="dav">    0.17    0.17</time>
   <time name="total">    0.20    0.20</time>
   <energy>
    <i name="alphaZ">     57.32781593 </i>
    <i name="ewald">   -670.47767564 </i>
    <i name="hartreedc">    -65.89744657 </i>
    <i name="XCdc">     56.94135403 </i>
    <i name="pawpsdc">   1771.79793302 </i>
    <i name="pawaedc">  -1774.59743715 </i>
    <i name="eentropy">     -0.00544655 </i>
    <i name="bandstr">      4.09758448 </i>
    <i name="atom">    588.60115103 </i>
    <i name="e_fr_energy">    -32.21216743 </i>
    <i name="e_wo_entrp">    -32.20672087 </i>
    <i name="e_0_energy">    -32.20944415 </i>
   </energy>
  </scstep>
  <structure>
   <crystal>
    <varray name="basis" >
     <v>       2.51652004       0.00000000       0.98144281 </v>
     <v>      -1.25826002       2.17937028      -0.49072141 </v>
     <v>       0.00000000       0.00000000       4.18035704 </v>
    </varray>
    <i name="volume">     22.92687127 </i>
    <varray name="rec_basis" >
     <v>       0.39737415       0.22942407       0.00000000 </v>
     <v>       0.00000000       0.45884814       0.00000000 </v>
     <v>      -0.09329347       0.00000000       0.23921402 </v>
    </varray>
   </crystal>
   <varray name="positions" >
    <v>       0.41192841       0.72264297       0.07534611 </v>
    <v>       0.58807159       0.27735703       0.92465389 </v>
    <v>       0.68928544       0.27735703       0.57534611 </v>
    <v>       0.31071456       0.72264297       0.42465389 </v>
   </varray>
  </structure>
  <varray name="forces" >
   <v>       1.09109198       0.19409431      -0.26637102 </v>
   <v>      -1.09109198      -0.19409431       0.26637102 </v>
   <v>       1.09109198      -0.19409431      -0.26637102 </v>
   <v>      -1.09109198       0.19409431       0.26637102 </v>
  </varray>
  <varray name="stress" >
   <v>     687.97776418      -0.00000000    -556.89235351 </v>
   <v>      -0.00000000     107.77759749      -0.00000000 </v>
   <v>    -556.89235268      -0.00000000    1027.41462766 </v>
  </varray>
  <energy>
   <i name="e_fr_energy">    -32.21216743 </i>
   <i name="e_wo_entrp">    -32.20672087 </i>
   <i name="e_0_energy">    -32.20944415 </i>
  </energy>
  <time name="totalsc">    1.51    1.51</time>
 </calculation>
 <calculation>
  <scstep>
   <time name="dav">    0.15    0.15</time>
   <time name="total">    0.19    0.19</time>
   <energy>
    <i name="alphaZ">     57.32781593 </i>
    <i name="ewald">   -664.01044690 </i>
    <i name="hartreedc">    -68.53830588 </i>
    <i name="XCdc">     57.09844827 </i>
    <i name="pawpsdc">   1771.53456294 </i>
    <i name="pawaedc">  -1774.33408482 </i>
    <i name="eentropy">     -0.00733880 </i>
    <i name="bandstr">      0.10082638 </i>
    <i name="atom">    588.60115103 </i>
    <i name="e_fr_energy">    -32.22737185 </i>
    <i name="e_wo_entrp">    -32.22003304 </i>
    <i name="e_0_energy">    -32.22370245 </i>
   </energy>
  </scstep>
  <scstep>
   <time name="dav">    0.18    0.18</time>
   <time name="total">    0.22    0.22</time>
   <energy>
    <i name="e_fr_energy">    -32.26759298 </i>
    <i name="e_wo_entrp">    -32.25973661 </i>
    <i name="e_0_energy">    -32.26366480 </i>
   </energy>
  </scstep>
  <scstep>
   <time name="dav">    0.17    0.17</time>
   <time name="total">    0.21    0.21</time>
   <energy>
    <i name="e_fr_energy">    -32.25579637 </i>
    <i name="e_wo_entrp">    -32.24774461 </i>
    <i name="e_0_energy">    -32.25177049 </i>
   </energy>
  </scstep>
  <scstep>
   <time name="dav">    0.18    0.18</time>
   <time name="total">    0.22    0.22</time>
   <energy>
    <i name="e_fr_energy">    -32.25600122 </i>
    <i name="e_wo_entrp">    -32.24790134 </i>
    <i name="e_0_energy">    -32.25195128 </i>
   </energy>
  </scstep>
  <scstep>
   <time name="dav">    0.17    0.17</time>
   <time name="total">    0.21    0.21</time>
   <energy>
    <i name="e_fr_energy">    -32.25607192 </i>
    <i name="e_wo_entrp">    -32.24796668 </i>
    <i name="e_0_energy">    -32.25201930 </i>
   </energy>
  </scstep>
  <scstep>
   <time name="dav">    0.17    0.17</time>
   <time name="total">    0.22    0.22</time>
   <energy>
    <i name="e_fr_energy">    -32.25606466 </i>
    <i name="e_wo_entrp">    -32.24795396 </i>
    <i name="e_0_energy">    -32.25200931 </i>
   </energy>
  </scstep>
  <scstep>
   <time name="dav">    0.13    0.13</time>
   <time name="total">    0.16    0.16</time>
   <energy>
    <i name="alphaZ">     57.32781593 </i>
    <i name="ewald">   -664.01044690 </i>
    <i name="hartreedc">    -69.92496585 </i>
    <i name="XCdc">     57.20071951 </i>
    <i name="pawpsdc">   1876.18349405 </i>
    <i name="pawaedc">  -1879.02394436 </i>
    <i name="eentropy">     -0.00811171 </i>
    <i name="bandstr">      1.39822317 </i>
    <i name="atom">    588.60115103 </i>
    <i name="e_fr_energy">    -32.25606511 </i>
    <i name="e_wo_entrp">    -32.24795341 </i>
    <i name="e_0_energy">    -32.25200926 </i>
   </energy>
  </scstep>
  <structure>
   <crystal>
    <varray name="basis" >
     <v>       2.51652004       0.00000000       0.98144281 </v>
     <v>      -1.25826002       2.17937028      -0.49072141 </v>
     <v>       0.00000000       0.00000000       4.18035704 </v>
    </varray>
    <i name="volume">     22.92687127 </i>
    <varray name="rec_basis" >
     <v>       0.39737415       0.22942407       0.00000000 </v>
     <v>       0.00000000       0.45884814       0.00000000 </v>
     <v>      -0.09329347       0.00000000       0.23921402 </v>
    </varray>
   </crystal>
   <varray name="positions" >
    <v>       0.44867886       0.74134116       0.07812348 </v>
    <v>       0.55132114       0.25865884       0.92187652 </v>
    <v>       0.70733770       0.25865884       0.57812348 </v>
    <v>       0.29266230       0.74134116       0.42187652 </v>
   </varray>
  </structure>
  <varray name="forces" >
   <v>       0.41311751       0.61287827      -2.38726464 </v>
   <v>      -0.41311751      -0.61287827       2.38726464 </v>
   <v>       0.41311751      -0.61287827      -2.38726464 </v>
   <v>      -0.41311751       0.61287827       2.38726464 </v>
  </varray>
  <varray name="stress" >
   <v>     727.12674656      -0.00000000    -467.56989551 </v>
   <v>      -0.00000000      71.01307138      -0.00000000 </v>
   <v>    -467.56989543      -0.00000000    1405.43331878 </v>
  </varray>
  <energy>
   <i name="e_fr_energy">    -32.25606511 </i>
   <i name="e_wo_entrp">    -32.24795341 </i>
   <i name="e_0_energy">    -32.25200926 </i>
  </energy>
  <time name="totalsc">    1.63    1.63</time>
 </calculation>
 <calculation>
  <scstep>
   <time name="dav">    0.15    0.15</time>
   <time name="total">    0.19    0.19</time>
   <energy>
    <i name="alphaZ">     57.32781593 </i>
    <i name="ewald">   -665.60456623 </i>
    <i name="hartreedc">    -69.22134991 </i>
    <i name="XCdc">     57.15863539 </i>
    <i name="pawpsdc">   1876.05857767 </i>
    <i name="pawaedc">  -1878.89904621 </i>
    <i name="eentropy">     -0.00191879 </i>
    <i name="bandstr">      2.28701503 </i>
    <i name="atom">    588.60115103 </i>
    <i name="e_fr_energy">    -32.29368609 </i>
    <i name="e_wo_entrp">    -32.29176729 </i>
    <i name="e_0_energy">    -32.29272669 </i>
   </energy>
  </scstep>
  <scstep>
   <time name="dav">    0.18    0.18</time>
   <time name="total">    0.22    0.22</time>
   <energy>
    <i name="e_fr_energy">    -32.29577558 </i>
    <i name="e_wo_entrp">    -32.29390462 </i>
    <i name="e_0_energy">    -32.29484010 </i>
   </energy>
  </scstep>
  <scstep>
   <time name="dav">    0.17    0.17</time>
   <time name="total">    0.22    0.22</time>
   <energy>
    <i name="e_fr_energy">    -32.29477258 </i>
    <i name="e_wo_entrp">    -32.29299495 </i>
    <i name="e_0_energy">    -32.29388376 </i>
   </energy>
  </scstep>
  <scstep>
   <time name="dav">    0.18    0.18</time>
   <time name="total">    0.22    0.22</time>
   <energy>
    <i name="e_fr_energy">    -32.29481394 </i>
    <i name="e_wo_entrp">    -32.29303787 </i>
    <i name="e_0_energy">    -32.29392591 </i>
   </energy>
  </scstep>
  <scstep>
   <time name="dav">    0.18    0.18</time>
   <time name="total">    0.22    0.22</time>
   <energy>
    <i name="e_fr_energy">    -32.29482203 </i>
    <i name="e_wo_entrp">    -32.29304519 </i>
    <i name="e_0_energy">    -32.29393361 </i>
   </energy>
  </scstep>
  <scstep>
   <time name="dav">    0.14    0.14</time>
   <time name="total">    0.16    0.16</time>
   <energy>
    <i name="alphaZ">     57.32781593 </i>
    <i name="ewald">   -665.60456623 </i>
    <i name="hartreedc">    -68.89357365 </i>
    <i name="XCdc">     57.13324547 </i>
    <i name="pawpsdc">   1848.96005144 </i>
    <i name="pawaedc">  -1851.78979179 </i>
    <i name="eentropy">     -0.00177553 </i>
    <i name="bandstr">      1.97262142 </i>
    <i name="atom">    588.60115103 </i>
    <i name="e_fr_energy">    -32.29482190 </i>
    <i name="e_wo_entrp">    -32.29304637 </i>
    <i name="e_0_energy">    -32.29393414 </i>
   </energy>
  </scstep>
  <structure>
   <crystal>
    <varray name="basis" >
     <v>       2.51652004       0.00000000       0.98144281 </v>
     <v>      -1.25826002       2.17937028      -0.49072141 </v>
     <v>       0.00000000       0.00000000       4.18035704 </v>
    </varray>
    <i name="volume">     22.92687127 </i>
    <varray name="rec_basis" >
     <v>       0.39737415       0.22942407       0.00000000 </v>
     <v>       0.00000000       0.45884814       0.00000000 </v>
     <v>      -0.09329347       0.00000000       0.23921402 </v>
    </varray>
   </crystal>
   <varray name="positions" >
    <v>       0.43598640       0.73488339       0.07716426 </v>
    <v>       0.56401360       0.26511661       0.92283574 </v>
    <v>       0.70110301       0.26511661       0.57716426 </v>
    <v>       0.29889699       0.73488339       0.42283574 </v>
   </varray>
  </structure>
  <varray name="forces" >
   <v>       0.49860362       0.40602576      -1.60294805 </v>
   <v>      -0.49860362      -0.40602576       1.60294805 </v>
   <v>       0.49860362      -0.40602576      -1.60294805 </v>
   <v>      -0.49860362       0.40602576       1.60294805 </v>
  </varray>
  <varray name="stress" >
   <v>     732.85935782      -0.00000000    -486.88992188 </v>
   <v>      -0.00000000      76.13481647      -0.00000000 </v>
   <v>    -486.88992270      -0.00000000    1277.59140651 </v>
  </varray>
  <energy>
   <i name="e_fr_energy">    -32.29482190 </i>
   <i name="e_wo_entrp">    -32.29304637 </i>
   <i name="e_0_energy">    -32.29393414 </i>
  </energy>
  <time name="totalsc">    1.43    1.43</time>
 </calculation>
 <calculation>
  <scstep>
   <time name="dav">    0.15    0.15</time>
   <time name="total">    0.20    0.20</time>
   <energy>
    <i name="alphaZ">     57.32781593 </i>
    <i name="ewald">   -666.30776134 </i>
    <i name="hartreedc">    -68.58599806 </i>
    <i name="XCdc">     57.11486701 </i>
    <i name="pawpsdc">   1848.99874302 </i>
    <i name="pawaedc">  -1851.82847916 </i>
    <i name="eentropy">     -0.00148545 </i>
    <i name="bandstr">      2.38474924 </i>
    <i name="atom">    588.60115103 </i>
    <i name="e_fr_energy">    -32.29639777 </i>
    <i name="e_wo_entrp">    -32.29491232 </i>
    <i name="e_0_energy">    -32.29565504 </i>
   </energy>
  </scstep>
  <scstep>
   <time name="dav">    0.19    0.19</time>
   <time name="total">    0.23    0.23</time>
   <energy>
    <i name="e_fr_energy">    -32.29656925 </i>
    <i name="e_wo_entrp">    -32.29509659 </i>
    <i name="e_0_energy">    -32.29583292 </i>
   </energy>
  </scstep>
  <scstep>
   <time name="dav">    0.17    0.17</time>
   <time name="total">    0.22    0.22</time>
   <energy>
    <i name="e_fr_energy">    -32.29643223 </i>
[...]
       <r>   12.9446    0.0000 </r>
       <r>   15.2947    0.0000 </r>
       <r>   18.6900    0.0000 </r>
       <r>   19.4431    0.0000 </r>
      </set>
      <set comment="kpoint 10">
       <r>   -8.9599    1.0000 </r>
       <r>   -3.3462    1.0000 </r>
       <r>   -2.1787    1.0000 </r>
       <r>   -0.2563    1.0000 </r>
       <r>    0.8925    1.0000 </r>
       <r>    3.7084    1.0000 </r>
       <r>    6.7888    1.0000 </r>
       <r>    8.7122    1.0000 </r>
       <r>   13.8861    0.0000 </r>
       <r>   15.2720    0.0000 </r>
       <r>   17.4443    0.0000 </r>
       <r>   19.6262    0.0000 </r>
      </set>
      <set comment="kpoint 11">
       <r>   -6.5152    1.0000 </r>
       <r>   -3.6008    1.0000 </r>
       <r>   -2.6451    1.0000 </r>
       <r>   -1.1745    1.0000 </r>
       <r>    0.8428    1.0000 </r>
       <r>    2.4118    1.0000 </r>
       <r>    3.2767    1.0000 </r>
       <r>    8.2056    1.0000 </r>
       <r>   14.4668    0.0000 </r>
       <r>   18.5295    0.0000 </r>
       <r>   18.7181    0.0000 </r>
       <r>   20.2069    0.0000 </r>
      </set>
      <set comment="kpoint 12">
       <r>   -6.5897    1.0000 </r>
       <r>   -4.2663    1.0000 </r>
       <r>   -2.9956    1.0000 </r>
       <r>   -1.2619    1.0000 </r>
       <r>    2.9101    1.0000 </r>
       <r>    3.1227    1.0000 </r>
       <r>    5.1330    1.0000 </r>
       <r>    6.7204    1.0000 </r>
       <r>   13.8404    0.0000 </r>
       <r>   15.1621    0.0000 </r>
       <r>   16.6494    0.0000 </r>
       <r>   19.1575    0.0000 </r>
      </set>
      <set comment="kpoint 13">
       <r>  -11.3032    1.0000 </r>
       <r>   -6.4783    1.0000 </r>
       <r>   -1.1334    1.0000 </r>
       <r>    3.8970    1.0000 </r>
       <r>    4.8783    1.0000 </r>
       <r>    7.3034    1.0000 </r>
       <r>    9.0903    1.0000 </r>
       <r>   10.6365    1.0000 </r>
       <r>   12.8753    0.0000 </r>
       <r>   13.9416    0.0000 </r>
       <r>   16.9157    0.0000 </r>
       <r>   17.8872    0.0000 </r>
      </set>
      <set comment="kpoint 14">
       <r>   -9.6510    1.0000 </r>
       <r>   -3.4184    1.0000 </r>
       <r>   -1.8813    1.0000 </r>
       <r>    0.6917    1.0000 </r>
       <r>    1.7944    1.0000 </r>
       <r>    2.9696    1.0000 </r>
       <r>    5.3873    1.0000 </r>
       <r>    9.5787    1.0000 </r>
       <r>   15.4563    0.0000 </r>
       <r>   15.9584    0.0000 </r>
       <r>   18.9597    0.0000 </r>
       <r>   19.5656    0.0000 </r>
      </set>
      <set comment="kpoint 15">
       <r>   -6.7646    1.0000 </r>
       <r>   -5.5177    1.0000 </r>
       <r>   -3.2243    1.0000 </r>
       <r>    0.5949    1.0000 </r>
       <r>    2.2101    1.0000 </r>
       <r>    3.5140    1.0000 </r>
       <r>    4.8162    1.0000 </r>
       <r>    7.5701    1.0000 </r>
       <r>   13.8233    0.0000 </r>
       <r>   15.7332    0.0000 </r>
       <r>   17.3397    0.0000 </r>
       <r>   20.5308    0.0000 </r>
      </set>
      <set comment="kpoint 16">
       <r>  -10.0202    1.0000 </r>
       <r>   -7.3043    1.0000 </r>
       <r>    1.2735    1.0000 </r>
       <r>    2.0749    1.0000 </r>
       <r>    4.3159    1.0000 </r>
       <r>    5.3311    1.0000 </r>
       <r>    7.2811    1.0000 </r>
       <r>    8.1032    1.0000 </r>
       <r>   14.1287    0.0000 </r>
       <r>   15.0789    0.0000 </r>
       <r>   16.9881    0.0000 </r>
       <r>   18.0819    0.0000 </r>
      </set>
     </set>
    </set>
   </array>
  </eigenvalues>
  <separator name="orbital magnetization" >
   <v name="MAGDIPOLOUT">      0.00000000      0.00000000      0.00000000</v>
  </separator>
  <dos>
   <i name="efermi">     11.15406476 </i>
   <total>
    <array>
     <dimension dim="1">gridpoints</dimension>
     <dimension dim="2">spin</dimension>
     <field>energy</field>
     <field>total</field>
     <field>integrated</field>
     <set>
      <set comment="spin 1">
       <r>   -12.8949     0.0000     0.0000 </r>
       <r>   -12.7782     0.0000     0.0000 </r>
       <r>   -12.6614     0.0000     0.0000 </r>
       <r>   -12.5447     0.0000     0.0000 </r>
       <r>   -12.4280     0.0000     0.0000 </r>
       <r>   -12.3113     0.0000     0.0000 </r>
       <r>   -12.1945     0.0000     0.0000 </r>
       <r>   -12.0778     0.0000     0.0000 </r>
       <r>   -11.9611     0.0000     0.0000 </r>
       <r>   -11.8444     0.0000     0.0000 </r>
       <r>   -11.7276     0.0000     0.0000 </r>
       <r>   -11.6109     0.0000     0.0000 </r>
       <r>   -11.4942     0.0037     0.0004 </r>
       <r>   -11.3775     0.1535     0.0183 </r>
       <r>   -11.2607     0.6201     0.0907 </r>
       <r>   -11.1440     0.2805     0.1235 </r>
       <r>   -11.0273     0.0131     0.1250 </r>
       <r>   -10.9106     0.0209     0.1274 </r>
       <r>   -10.7938     0.3436     0.1676 </r>
       <r>   -10.6771     0.6344     0.2416 </r>
       <r>   -10.5604     0.5656     0.3076 </r>
       <r>   -10.4437     0.5133     0.3675 </r>
       <r>   -10.3269     0.0632     0.3749 </r>
       <r>   -10.2102     0.0046     0.3755 </r>
       <r>   -10.0935     0.1569     0.3938 </r>
       <r>    -9.9768     0.6217     0.4663 </r>
       <r>    -9.8600     0.2776     0.4987 </r>
       <r>    -9.7433     0.1135     0.5120 </r>
       <r>    -9.6266     0.5774     0.5794 </r>
       <r>    -9.5099     0.3664     0.6221 </r>
       <r>    -9.3931     0.0245     0.6250 </r>
       <r>    -9.2764     0.0042     0.6255 </r>
       <r>    -9.1597     0.1629     0.6445 </r>
       <r>    -9.0430     0.7492     0.7319 </r>
       <r>    -8.9262     0.8741     0.8340 </r>
       <r>    -8.8095     0.3339     0.8729 </r>
       <r>    -8.6928     0.0603     0.8800 </r>
       <r>    -8.5761     0.4500     0.9325 </r>
       <r>    -8.4593     0.5134     0.9924 </r>
       <r>    -8.3426     0.0649     1.0000 </r>
       <r>    -8.2259     0.0717     1.0084 </r>
       <r>    -8.1092     0.6290     1.0818 </r>
       <r>    -7.9924     1.0177     1.2006 </r>
       <r>    -7.8757     0.4021     1.2475 </r>
       <r>    -7.7590     0.1555     1.2657 </r>
       <r>    -7.6423     0.6982     1.3472 </r>
       <r>    -7.5256     1.2013     1.4874 </r>
       <r>    -7.4088     1.1100     1.6170 </r>
       <r>    -7.2921     0.6759     1.6958 </r>
       <r>    -7.1754     0.4559     1.7491 </r>
       <r>    -7.0587     0.4253     1.7987 </r>
       <r>    -6.9419     0.6431     1.8738 </r>
       <r>    -6.8252     0.8279     1.9704 </r>
       <r>    -6.7085     1.1129     2.1003 </r>
       <r>    -6.5918     0.9341     2.2093 </r>
       <r>    -6.4750     1.6133     2.3976 </r>
       <r>    -6.3583     0.8173     2.4930 </r>
       <r>    -6.2416     0.2027     2.5167 </r>
       <r>    -6.1249     0.6166     2.5887 </r>
       <r>    -6.0081     0.4388     2.6399 </r>
       <r>    -5.8914     0.7186     2.7238 </r>
       <r>    -5.7747     0.8678     2.8251 </r>
       <r>    -5.6580     0.4252     2.8747 </r>
       <r>    -5.5412     0.3982     2.9212 </r>
       <r>    -5.4245     0.5748     2.9883 </r>
       <r>    -5.3078     0.0988     2.9998 </r>
       <r>    -5.1911     0.0077     3.0007 </r>
       <r>    -5.0743     0.1972     3.0237 </r>
       <r>    -4.9576     0.6320     3.0975 </r>
       <r>    -4.8409     0.2273     3.1240 </r>
       <r>    -4.7242     0.0111     3.1253 </r>
       <r>    -4.6074     0.1339     3.1410 </r>
       <r>    -4.4907     0.6105     3.2122 </r>
       <r>    -4.3740     0.4535     3.2652 </r>
       <r>    -4.2573     1.0892     3.3923 </r>
       <r>    -4.1405     1.1239     3.5235 </r>
       <r>    -4.0238     0.6996     3.6051 </r>
       <r>    -3.9071     0.1658     3.6245 </r>
       <r>    -3.7904     0.0082     3.6255 </r>
       <r>    -3.6736     0.1584     3.6439 </r>
       <r>    -3.5569     0.6505     3.7199 </r>
       <r>    -3.4402     0.7514     3.8076 </r>
       <r>    -3.3235     1.2381     3.9521 </r>
       <r>    -3.2067     1.0247     4.0717 </r>
       <r>    -3.0900     0.5229     4.1328 </r>
       <r>    -2.9733     0.6016     4.2030 </r>
       <r>    -2.8566     0.3780     4.2471 </r>
       <r>    -2.7398     0.1212     4.2612 </r>
       <r>    -2.6231     0.5729     4.3281 </r>
       <r>    -2.5064     0.5627     4.3938 </r>
       <r>    -2.3897     1.3362     4.5498 </r>
       <r>    -2.2729     1.6666     4.7443 </r>
       <r>    -2.1562     1.4292     4.9111 </r>
       <r>    -2.0395     0.7290     4.9962 </r>
       <r>    -1.9228     0.3307     5.0348 </r>
       <r>    -1.8060     0.6188     5.1071 </r>
       <r>    -1.6893     0.1502     5.1246 </r>
       <r>    -1.5726     0.0035     5.1250 </r>
       <r>    -1.4559     0.0034     5.1254 </r>
       <r>    -1.3391     0.1796     5.1464 </r>
       <r>    -1.2224     1.3392     5.3027 </r>
       <r>    -1.1057     2.0907     5.5467 </r>
       <r>    -0.9890     0.6421     5.6217 </r>
       <r>    -0.8722     0.0333     5.6256 </r>
       <r>    -0.7555     0.2739     5.6575 </r>
       <r>    -0.6388     1.7410     5.8607 </r>
       <r>    -0.5221     1.8124     6.0723 </r>
       <r>    -0.4053     0.4514     6.1250 </r>
       <r>    -0.2886     0.3470     6.1655 </r>
       <r>    -0.1719     0.6007     6.2356 </r>
       <r>    -0.0552     0.2048     6.2595 </r>
       <r>     0.0616     0.6121     6.3310 </r>
       <r>     0.1783     0.9097     6.4371 </r>
       <r>     0.2950     0.4925     6.4946 </r>
       <r>     0.4117     0.0508     6.5006 </r>
       <r>     0.5285     0.1924     6.5230 </r>
       <r>     0.6452     0.8945     6.6274 </r>
       <r>     0.7619     1.0386     6.7487 </r>
       <r>     0.8786     1.2244     6.8916 </r>
       <r>     0.9954     1.3843     7.0532 </r>
       <r>     1.1121     1.7799     7.2609 </r>
       <r>     1.2288     1.1846     7.3992 </r>
       <r>     1.3455     0.9155     7.5060 </r>
       <r>     1.4623     0.8191     7.6016 </r>
       <r>     1.5790     0.5840     7.6698 </r>
       <r>     1.6957     0.6965     7.7511 </r>
       <r>     1.8124     1.0556     7.8743 </r>
       <r>     1.9292     1.5889     8.0598 </r>
       <r>     2.0459     2.6797     8.3726 </r>
       <r>     2.1626     2.8756     8.7082 </r>
       <r>     2.2793     1.2628     8.8556 </r>
       <r>     2.3961     0.6026     8.9260 </r>
       <r>     2.5128     0.5559     8.9909 </r>
       <r>     2.6295     0.2338     9.0181 </r>
       <r>     2.7462     0.6338     9.0921 </r>
       <r>     2.8630     0.6920     9.1729 </r>
       <r>     2.9797     1.7991     9.3829 </r>
       <r>     3.0964     1.9125     9.6061 </r>
       <r>     3.2131     1.7058     9.8052 </r>
       <r>     3.3299     1.8129    10.0169 </r>
       <r>     3.4466     1.0325    10.1374 </r>
       <r>     3.5633     0.7664    10.2268 </r>
       <r>     3.6800     1.3116    10.3799 </r>
       <r>     3.7968     2.4138    10.6617 </r>
       <r>     3.9135     2.3695    10.9383 </r>
       <r>     4.0302     1.9891    11.1704 </r>
       <r>     4.1469     0.6492    11.2462 </r>
       <r>     4.2637     0.2787    11.2787 </r>
       <r>     4.3804     0.6326    11.3526 </r>
       <r>     4.4971     0.3086    11.3886 </r>
       <r>     4.6138     0.9867    11.5038 </r>
       <r>     4.7306     1.0735    11.6291 </r>
       <r>     4.8473     1.0528    11.7520 </r>
       <r>     4.9640     1.2593    11.8989 </r>
       <r>     5.0807     0.9796    12.0133 </r>
       <r>     5.1975     0.7986    12.1065 </r>
       <r>     5.3142     0.8785    12.2090 </r>
       <r>     5.4309     1.8114    12.4205 </r>
       <r>     5.5476     1.0618    12.5444 </r>
       <r>     5.6644     0.5970    12.6141 </r>
       <r>     5.7811     0.1349    12.6299 </r>
       <r>     5.8978     0.5228    12.6909 </r>
       <r>     6.0145     1.4225    12.8569 </r>
       <r>     6.1313     1.6769    13.0527 </r>
       <r>     6.2480     0.7717    13.1427 </r>
       <r>     6.3647     1.1650    13.2787 </r>
       <r>     6.4814     0.7682    13.3684 </r>
       <r>     6.5981     0.1258    13.3831 </r>
       <r>     6.7149     0.9565    13.4947 </r>
       <r>     6.8316     1.8203    13.7072 </r>
       <r>     6.9483     1.1057    13.8363 </r>
       <r>     7.0650     0.9228    13.9440 </r>
       <r>     7.1818     0.5758    14.0112 </r>
       <r>     7.2985     1.0727    14.1364 </r>
       <r>     7.4152     1.5756    14.3203 </r>
       <r>     7.5319     2.2801    14.5865 </r>
       <r>     7.6487     1.2375    14.7309 </r>
       <r>     7.7654     0.1906    14.7532 </r>
       <r>     7.8821     0.4272    14.8030 </r>
       <r>     7.9988     1.0162    14.9216 </r>
       <r>     8.1156     1.2945    15.0727 </r>
       <r>     8.2323     1.1030    15.2015 </r>
       <r>     8.3490     0.3926    15.2473 </r>
       <r>     8.4657     0.0232    15.2500 </r>
       <r>     8.5825     0.0386    15.2545 </r>
       <r>     8.6992     0.5635    15.3203 </r>
       <r>     8.8159     1.1515    15.4547 </r>
       <r>     8.9326     0.3860    15.4998 </r>
       <r>     9.0494     0.3035    15.5352 </r>
       <r>     9.1661     0.6176    15.6073 </r>
       <r>     9.2828     0.1487    15.6246 </r>
       <r>     9.3995     0.0496    15.6304 </r>
       <r>     9.5163     0.6371    15.7048 </r>
       <r>     9.6330     1.1530    15.8394 </r>
       <r>     9.7497     0.2961    15.8739 </r>
       <r>     9.8664     0.0091    15.8750 </r>
       <r>     9.9832     0.0000    15.8750 </r>
       <r>    10.0999     0.0000    15.8750 </r>
       <r>    10.2166     0.0000    15.8750 </r>
       <r>    10.3333     0.0000    15.8750 </r>
       <r>    10.4501     0.0045    15.8755 </r>
       <r>    10.5668     0.1691    15.8953 </r>
       <r>    10.6835     0.6263    15.9684 </r>
       <r>    10.8002     0.2600    15.9987 </r>
       <r>    10.9170     0.0110    16.0000 </r>
       <r>    11.0337     0.0000    16.0000 </r>
       <r>    11.1504     0.0000    16.0000 </r>
       <r>    11.2671     0.0000    16.0000 </r>
       <r>    11.3839     0.0000    16.0000 </r>
       <r>    11.5006     0.0000    16.0000 </r>
       <r>    11.6173     0.0000    16.0000 </r>
       <r>    11.7340     0.0000    16.0000 </r>
       <r>    11.8508     0.0000    16.0000 </r>
       <r>    11.9675     0.0000    16.0000 </r>
       <r>    12.0842     0.0000    16.0000 </r>
       <r>    12.2009     0.0000    16.0000 </r>
       <r>    12.3177     0.0003    16.0000 </r>
       <r>    12.4344     0.0397    16.0047 </r>
       <r>    12.5511     0.4395    16.0560 </r>
       <r>    12.6678     0.5244    16.1172 </r>
       <r>    12.7846     0.1858    16.1389 </r>
       <r>    12.9013     0.8785    16.2414 </r>
       <r>    13.0180     1.3176    16.3952 </r>
       <r>    13.1347     1.0131    16.5134 </r>
       <r>    13.2515     0.7571    16.6018 </r>
       <r>    13.3682     0.2271    16.6283 </r>
       <r>    13.4849     0.4213    16.6775 </r>
       <r>    13.6016     0.5435    16.7410 </r>
       <r>    13.7184     0.2058    16.7650 </r>
       <r>    13.8351     1.3084    16.9177 </r>
       <r>    13.9518     2.2588    17.1814 </r>
       <r>    14.0685     1.5680    17.3644 </r>
       <r>    14.1853     1.3034    17.5165 </r>
       <r>    14.3020     0.8705    17.6181 </r>
       <r>    14.4187     0.8804    17.7209 </r>
       <r>    14.5354     1.6357    17.9118 </r>
       <r>    14.6522     1.0425    18.0335 </r>
       <r>    14.7689     1.0313    18.1539 </r>
       <r>    14.8856     0.7199    18.2379 </r>
       <r>    15.0023     0.2640    18.2687 </r>
       <r>    15.1191     0.9223    18.3764 </r>
       <r>    15.2358     1.6673    18.5710 </r>
       <r>    15.3525     3.1082    18.9338 </r>
       <r>    15.4692     2.1368    19.1832 </r>
       <r>    15.5860     0.5556    19.2481 </r>
       <r>    15.7027     0.3733    19.2916 </r>
       <r>    15.8194     0.6678    19.3696 </r>
       <r>    15.9361     0.9570    19.4813 </r>
       <r>    16.0529     1.0768    19.6070 </r>
       <r>    16.1696     0.2833    19.6400 </r>
       <r>    16.2863     0.6181    19.7122 </r>
       <r>    16.4030     0.6604    19.7893 </r>
       <r>    16.5198     1.2783    19.9385 </r>
       <r>    16.6365     1.3433    20.0953 </r>
       <r>    16.7532     1.1804    20.2331 </r>
       <r>    16.8699     0.8507    20.3324 </r>
       <r>    16.9867     1.8797    20.5518 </r>
       <r>    17.1034     1.3935    20.7144 </r>
       <r>    17.2201     0.3491    20.7552 </r>
       <r>    17.3368     0.7146    20.8386 </r>
       <r>    17.4536     1.6616    21.0325 </r>
       <r>    17.5703     1.0846    21.1592 </r>
       <r>    17.6870     0.6547    21.2356 </r>
       <r>    17.8037     0.2658    21.2666 </r>
       <r>    17.9205     0.9321    21.3754 </r>
       <r>    18.0372     1.1998    21.5154 </r>
       <r>    18.1539     0.8200    21.6112 </r>
       <r>    18.2706     0.6356    21.6853 </r>
       <r>    18.3874     0.5210    21.7462 </r>
       <r>    18.5041     0.4351    21.7970 </r>
       <r>    18.6208     1.1312    21.9290 </r>
       <r>    18.7375     2.2896    22.1962 </r>
       <r>    18.8543     1.4607    22.3667 </r>
       <r>    18.9710     0.6769    22.4458 </r>
       <r>    19.0877     0.6033    22.5162 </r>
       <r>    19.2044     0.8222    22.6122 </r>
       <r>    19.3212     1.3015    22.7641 </r>
       <r>    19.4379     1.4382    22.9319 </r>
       <r>    19.5546     1.7016    23.1306 </r>
       <r>    19.6713     2.0685    23.3720 </r>
       <r>    19.7881     0.9774    23.4861 </r>
       <r>    19.9048     0.1173    23.4998 </r>
       <r>    20.0215     0.0065    23.5005 </r>
       <r>    20.1382     0.1742    23.5209 </r>
       <r>    20.2550     0.7310    23.6062 </r>
       <r>    20.3717     1.0876    23.7331 </r>
       <r>    20.4884     1.3009    23.8850 </r>
       <r>    20.6051     0.8231    23.9811 </r>
       <r>    20.7219     0.1585    23.9996 </r>
       <r>    20.8386     0.0037    24.0000 </r>
       <r>    20.9553     0.0000    24.0000 </r>
       <r>    21.0720     0.0000    24.0000 </r>
       <r>    21.1887     0.0000    24.0000 </r>
       <r>    21.3055     0.0000    24.0000 </r>
       <r>    21.4222     0.0000    24.0000 </r>
       <r>    21.5389     0.0000    24.0000 </r>
       <r>    21.6556     0.0000    24.0000 </r>
       <r>    21.7724     0.0000    24.0000 </r>
       <r>    21.8891     0.0000    24.0000 </r>
       <r>    22.0058     0.0000    24.0000 </r>
       <r>    22.1225     0.0000    24.0000 </r>
      </set>
     </set>
    </array>
   </total>
  </dos>
 </calculation>
 <structure name="finalpos" >
  <crystal>
   <varray name="basis" >
    <v>       2.51652004       0.00000000       0.98144281 </v>
    <v>      -1.25826002       2.17937028      -0.49072141 </v>
    <v>       0.00000000       0.00000000       4.18035704 </v>
   </varray>
   <i name="volume">     22.92687127 </i>
   <varray name="rec_basis" >
    <v>       0.39737415       0.22942407       0.00000000 </v>
    <v>       0.00000000       0.45884814       0.00000000 </v>
    <v>      -0.09329347       0.00000000       0.23921402 </v>
   </varray>
  </crystal>
  <varray name="positions" >
   <v>       0.59100435       0.82114902       0.06546567 </v>
   <v>       0.40899565       0.17885098       0.93453433 </v>
   <v>       0.76985533       0.17885098       0.56546567 </v>
   <v>       0.23014467       0.82114902       0.43453433 </v>
  </varray>
  <varray name="selective"  type="logical" >
   <v type="logical" >  T  T  T </v>
   <v type="logical" >  T  T  T </v>
   <v type="logical" >  T  T  T </v>
   <v type="logical" >  T  T  T </v>
  </varray>
  <nose>
   <v>      -3.00000000       0.00000000       0.00010000       0.00010000 </v>
  </nose>
 </structure>
</modeling>
