unknown system                          
           1
     2.516520    0.000000    0.981443
    -1.258260    2.179370   -0.490721
     0.000000    0.000000    4.180357
   C 
     4
Direct configuration=     1
   0.33333333  0.66666667  0.06219378
   0.66666667  0.33333333  0.93780622
   0.66666667  0.33333333  0.56219378
   0.33333333  0.66666667  0.43780622
Direct configuration=     2
   0.35563769  0.71632907  0.07683775
   0.64436231  0.28367093  0.92316225
   0.63930862  0.28367093  0.57683775
   0.36069138  0.71632907  0.42316225
Direct configuration=     3
   0.34216114  0.68632247  0.06798969
   0.65783886  0.31367753  0.93201031
   0.65583867  0.31367753  0.56798969
   0.34416133  0.68632247  0.43201031
Direct configuration=     4
   0.36100780  0.69093855  0.07181333
   0.63899220  0.30906145  0.92818667
   0.67006925  0.30906145  0.57181333
   0.32993075  0.69093855  0.42818667
Direct configuration=     5
   0.36072094  0.69086829  0.07175513
   0.63927906  0.30913171  0.92824487
   0.66985265  0.30913171  0.57175513
   0.33014735  0.69086829  0.42824487
Direct configuration=     6
   0.37603414  0.70265605  0.06903433
   0.62396586  0.29734395  0.93096567
   0.67337809  0.29734395  0.56903433
   0.32662191  0.70265605  0.43096567
Direct configuration=     7
   0.36906414  0.69729070  0.07027274
   0.63093586  0.30270930  0.92972726
   0.67177344  0.30270930  0.57027274
   0.32822656  0.69729070  0.42972726
Direct configuration=     8
   0.37681266  0.70353958  0.07205210
   0.62318734  0.29646042  0.92794790
   0.67327307  0.29646042  0.57205210
   0.32672693  0.70353958  0.42794790
Direct configuration=     9
   0.38096792  0.70689064  0.07300632
   0.61903208  0.29310936  0.92699368
   0.67407728  0.29310936  0.57300632
   0.32592272  0.70689064  0.42699368
Direct configuration=    10
   0.38436557  0.70861933  0.07326309
   0.61563443  0.29138067  0.92673691
   0.67574624  0.29138067  0.57326309
   0.32425376  0.70861933  0.42673691
Direct configuration=    11
   0.39355318  0.71329387  0.07395743
   0.60644682  0.28670613  0.92604257
   0.68025931  0.28670613  0.57395743
   0.31974069  0.71329387  0.42604257
Direct configuration=    12
   0.41192841  0.72264297  0.07534611
   0.58807159  0.27735703  0.92465389
   0.68928544  0.27735703  0.57534611
   0.31071456  0.72264297  0.42465389
Direct configuration=    13
   0.44867886  0.74134116  0.07812348
   0.55132114  0.25865884  0.92187652
   0.70733770  0.25865884  0.57812348
   0.29266230  0.74134116  0.42187652
Direct configuration=    14
   0.43598640  0.73488339  0.07716426
   0.56401360  0.26511661  0.92283574
   0.70110301  0.26511661  0.57716426
   0.29889699  0.73488339  0.42283574
Direct configuration=    15
   0.43167378  0.73268918  0.07683834
   0.56832622  0.26731082  0.92316166
   0.69898460  0.26731082  0.57683834
   0.30101540  0.73268918  0.42316166
Direct configuration=    16
   0.43284796  0.73328659  0.07692708
   0.56715204  0.26671341  0.92307292
   0.69956137  0.26671341  0.57692708
   0.30043863  0.73328659  0.42307292
Direct configuration=    17
   0.43457724  0.73416871  0.07693071
   0.56542276  0.26583129  0.92306929
   0.70040853  0.26583129  0.57693071
   0.29959147  0.73416871  0.42306929
Direct configuration=    18
   0.43923373  0.73654402  0.07694049
   0.56076627  0.26345598  0.92305951
   0.70268971  0.26345598  0.57694049
   0.29731029  0.73654402  0.42305951
Direct configuration=    19
   0.43955809  0.73674379  0.07674843
   0.56044191  0.26325621  0.92325157
   0.70281431  0.26325621  0.57674843
   0.29718569  0.73674379  0.42325157
Direct configuration=    20
   0.44053118  0.73734308  0.07617224
   0.55946882  0.26265692  0.92382776
   0.70318809  0.26265692  0.57617224
   0.29681191  0.73734308  0.42382776
Direct configuration=    21
   0.44247734  0.73854168  0.07501987
   0.55752266  0.26145832  0.92498013
   0.70393566  0.26145832  0.57501987
   0.29606434  0.73854168  0.42498013
Direct configuration=    22
   0.44636968  0.74093888  0.07271512
   0.55363032  0.25906112  0.92728488
   0.70543080  0.25906112  0.57271512
   0.29456920  0.74093888  0.42728488
Direct configuration=    23
   0.44499185  0.74009031  0.07353096
   0.55500815  0.25990969  0.92646904
   0.70490154  0.25990969  0.57353096
   0.29509846  0.74009031  0.42646904
Direct configuration=    24
   0.44510344  0.74037882  0.07354896
   0.55489656  0.25962118  0.92645104
   0.70472462  0.25962118  0.57354896
   0.29527538  0.74037882  0.42645104
Direct configuration=    25
   0.44543823  0.74124436  0.07360295
   0.55456177  0.25875564  0.92639705
   0.70419387  0.25875564  0.57360295
   0.29580613  0.74124436  0.42639705
Direct configuration=    26
   0.44610780  0.74297545  0.07371093
   0.55389220  0.25702455  0.92628907
   0.70313236  0.25702455  0.57371093
   0.29686764  0.74297545  0.42628907
Direct configuration=    27
   0.44584047  0.74228429  0.07366782
   0.55415953  0.25771571  0.92633218
   0.70355618  0.25771571  0.57366782
   0.29644382  0.74228429  0.42633218
Direct configuration=    28
   0.44610423  0.74246840  0.07375836
   0.55389577  0.25753160  0.92624164
   0.70363583  0.25753160  0.57375836
   0.29636417  0.74246840  0.42624164
Direct configuration=    29
   0.44689552  0.74302072  0.07402997
   0.55310448  0.25697928  0.92597003
   0.70387480  0.25697928  0.57402997
   0.29612520  0.74302072  0.42597003
Direct configuration=    30
   0.44847810  0.74412536  0.07457319
   0.55152190  0.25587464  0.92542681
   0.70435274  0.25587464  0.57457319
   0.29564726  0.74412536  0.42542681
Direct configuration=    31
   0.44732780  0.74332244  0.07417835
   0.55267220  0.25667756  0.92582165
   0.70400535  0.25667756  0.57417835
   0.29599465  0.74332244  0.42582165
Direct configuration=    32
   0.44758186  0.74346223  0.07416909
   0.55241814  0.25653777  0.92583091
   0.70411963  0.25653777  0.57416909
   0.29588037  0.74346223  0.42583091
Direct configuration=    33
   0.44834407  0.74388160  0.07414131
   0.55165593  0.25611840  0.92585869
   0.70446247  0.25611840  0.57414131
   0.29553753  0.74388160  0.42585869
Direct configuration=    34
   0.44986849  0.74472033  0.07408576
   0.55013151  0.25527967  0.92591424
   0.70514816  0.25527967  0.57408576
   0.29485184  0.74472033  0.42591424
Direct configuration=    35
   0.45291732  0.74639779  0.07397465
   0.54708268  0.25360221  0.92602535
   0.70651953  0.25360221  0.57397465
   0.29348047  0.74639779  0.42602535
Direct configuration=    36
   0.45901498  0.74975271  0.07375244
   0.54098502  0.25024729  0.92624756
   0.70926228  0.25024729  0.57375244
   0.29073772  0.74975271  0.42624756
Direct configuration=    37
   0.47121031  0.75646254  0.07330803
   0.52878969  0.24353746  0.92669197
   0.71474777  0.24353746  0.57330803
   0.28525223  0.75646254  0.42669197
Direct configuration=    38
   0.49560097  0.76988222  0.07241919
   0.50439903  0.23011778  0.92758081
   0.72571875  0.23011778  0.57241919
   0.27428125  0.76988222  0.42758081
Direct configuration=    39
   0.54438228  0.79672156  0.07064151
   0.45561772  0.20327844  0.92935849
   0.74766072  0.20327844  0.57064151
   0.25233928  0.79672156  0.42935849
Direct configuration=    40
   0.64194490  0.85040026  0.06708616
   0.35805510  0.14959974  0.93291384
   0.79154464  0.14959974  0.56708616
   0.20845536  0.85040026  0.43291384
Direct configuration=    41
   0.55985962  0.80523715  0.07007749
   0.44014038  0.19476285  0.92992251
   0.75462246  0.19476285  0.57007749
   0.24537754  0.80523715  0.42992251
Direct configuration=    42
   0.60090226  0.82781871  0.06858183
   0.39909774  0.17218129  0.93141817
   0.77308355  0.17218129  0.56858183
   0.22691645  0.82781871  0.43141817
Direct configuration=    43
   0.57993116  0.81628047  0.06934605
   0.42006884  0.18371953  0.93065395
   0.76365070  0.18371953  0.56934605
   0.23634930  0.81628047  0.43065395
Direct configuration=    44
   0.59331593  0.82364473  0.06885828
   0.40668407  0.17635527  0.93114172
   0.76967120  0.17635527  0.56885828
   0.23032880  0.82364473  0.43114172
Direct configuration=    45
   0.58743925  0.82041140  0.06907244
   0.41256075  0.17958860  0.93092756
   0.76702786  0.17958860  0.56907244
   0.23297214  0.82041140  0.43092756
Direct configuration=    46
   0.58809753  0.82077358  0.06904845
   0.41190247  0.17922642  0.93095155
   0.76732395  0.17922642  0.56904845
   0.23267605  0.82077358  0.43095155
Direct configuration=    47
   0.58943209  0.82147580  0.06891397
   0.41056791  0.17852420  0.93108603
   0.76795629  0.17852420  0.56891397
   0.23204371  0.82147580  0.43108603
Direct configuration=    48
   0.59013173  0.82184393  0.06884347
   0.40986827  0.17815607  0.93115653
   0.76828780  0.17815607  0.56884347
   0.23171220  0.82184393  0.43115653
Direct configuration=    49
   0.59014996  0.82181798  0.06875005
   0.40985004  0.17818202  0.93124995
   0.76833199  0.17818202  0.56875005
   0.23166801  0.82181798  0.43124995
Direct configuration=    50
   0.59020467  0.82174012  0.06846979
   0.40979533  0.17825988  0.93153021
   0.76846455  0.17825988  0.56846979
   0.23153545  0.82174012  0.43153021
Direct configuration=    51
   0.59031408  0.82158439  0.06790926
   0.40968592  0.17841561  0.93209074
   0.76872969  0.17841561  0.56790926
   0.23127031  0.82158439  0.43209074
Direct configuration=    52
   0.59053290  0.82127294  0.06678822
   0.40946710  0.17872706  0.93321178
   0.76925996  0.17872706  0.56678822
   0.23074004  0.82127294  0.43321178
Direct configuration=    53
   0.59097055  0.82065005  0.06454613
   0.40902945  0.17934995  0.93545387
   0.77032051  0.17934995  0.56454613
   0.22967949  0.82065005  0.43545387
Direct configuration=    54
   0.59078826  0.82090950  0.06548004
   0.40921174  0.17909050  0.93451996
   0.76987875  0.17909050  0.56548004
   0.23012125  0.82090950  0.43451996
Direct configuration=    55
   0.59082063  0.82095491  0.06547500
   0.40917937  0.17904509  0.93452500
   0.76986572  0.17904509  0.56547500
   0.23013428  0.82095491  0.43452500
Direct configuration=    56
   0.59091773  0.82109112  0.06545990
   0.40908227  0.17890888  0.93454010
   0.76982661  0.17890888  0.56545990
   0.23017339  0.82109112  0.43454010
Direct configuration=    57
   0.59093939  0.82110560  0.06546134
   0.40906061  0.17889440  0.93453866
   0.76983379  0.17889440  0.56546134
   0.23016621  0.82110560  0.43453866
Direct configuration=    58
   0.59100435  0.82114902  0.06546567
   0.40899565  0.17885098  0.93453433
   0.76985533  0.17885098  0.56546567
   0.23014467  0.82114902  0.43453433
