   4   4   0   0
  0.5731718E+01  0.2516520E-09  0.2516520E-09  0.4180357E-09  0.1000000E-15
  1.000000000000000E-004
  CAR 
 unknown system                          
     21.99407080    -12.54607307  301      9.10268169      1.00000000
    -12.546  0.0000E+00  0.0000E+00
    -12.431  0.0000E+00  0.0000E+00
    -12.316  0.0000E+00  0.0000E+00
    -12.201  0.0000E+00  0.0000E+00
    -12.086  0.0000E+00  0.0000E+00
    -11.970  0.0000E+00  0.0000E+00
    -11.855  0.0000E+00  0.0000E+00
    -11.740  0.0000E+00  0.0000E+00
    -11.625  0.0000E+00  0.0000E+00
    -11.510  0.1587E-15  0.1827E-16
    -11.395  0.1159E-10  0.1334E-11
    -11.280  0.6389E-07  0.7357E-08
    -11.164  0.2785E-04  0.3214E-05
    -11.049  0.1058E-02  0.1251E-03
    -10.934  0.4148E-02  0.6026E-03
    -10.819  0.1909E-02  0.8223E-03
    -10.704  0.9510E-04  0.8333E-03
    -10.589  0.4302E-06  0.8333E-03
    -10.474  0.7688E-06  0.8334E-03
    -10.359  0.1366E-03  0.8491E-03
    -10.243  0.2232E-02  0.1106E-02
    -10.128  0.4009E-02  0.1568E-02
    -10.013  0.8419E-03  0.1665E-02
     -9.898  0.1794E-04  0.1667E-02
     -9.783  0.3293E-07  0.1667E-02
     -9.668  0.4753E-11  0.1667E-02
     -9.553  0.5143E-16  0.1667E-02
     -9.437  0.0000E+00  0.1667E-02
     -9.322  0.0000E+00  0.1667E-02
     -9.207  0.1918E-13  0.1667E-02
     -9.092  0.5798E-09  0.1667E-02
     -8.977  0.1339E-05  0.1667E-02
     -8.862  0.2507E-03  0.1696E-02
     -8.747  0.4306E-02  0.2191E-02
     -8.632  0.8096E-02  0.3124E-02
     -8.516  0.1782E-02  0.3329E-02
     -8.401  0.3996E-04  0.3333E-02
     -8.286  0.1821E-06  0.3333E-02
     -8.171  0.3850E-04  0.3338E-02
     -8.056  0.1246E-02  0.3481E-02
     -7.941  0.4231E-02  0.3968E-02
     -7.826  0.2594E-02  0.4267E-02
     -7.710  0.4141E-02  0.4744E-02
     -7.595  0.2107E-02  0.4986E-02
     -7.480  0.1192E-03  0.5000E-02
     -7.365  0.6194E-06  0.5000E-02
     -7.250  0.3177E-05  0.5000E-02
     -7.135  0.3203E-03  0.5037E-02
     -7.020  0.3092E-02  0.5393E-02
     -6.905  0.3391E-02  0.5784E-02
     -6.789  0.6102E-03  0.5854E-02
     -6.674  0.3765E-02  0.6287E-02
     -6.559  0.8314E-02  0.7245E-02
     -6.444  0.2159E-02  0.7493E-02
     -6.329  0.5792E-04  0.7500E-02
     -6.214  0.1356E-06  0.7500E-02
     -6.099  0.2512E-10  0.7500E-02
     -5.983  0.1799E-09  0.7500E-02
     -5.868  0.5749E-06  0.7500E-02
     -5.753  0.1475E-03  0.7517E-02
     -5.638  0.3402E-02  0.7909E-02
     -5.523  0.8408E-02  0.8877E-02
     -5.408  0.2444E-02  0.9158E-02
     -5.293  0.1275E-03  0.9173E-02
     -5.178  0.1463E-02  0.9341E-02
     -5.062  0.4369E-02  0.9844E-02
     -4.947  0.3687E-02  0.1027E-01
     -4.832  0.4053E-02  0.1074E-01
     -4.717  0.8335E-03  0.1083E-01
     -4.602  0.1760E-04  0.1083E-01
     -4.487  0.3200E-07  0.1083E-01
     -4.372  0.4884E-11  0.1083E-01
     -4.256  0.4216E-08  0.1083E-01
     -4.141  0.4499E-05  0.1083E-01
     -4.026  0.4299E-03  0.1088E-01
     -3.911  0.5127E-02  0.1147E-01
     -3.796  0.1133E-01  0.1278E-01
     -3.681  0.4578E-02  0.1331E-01
     -3.566  0.2435E-03  0.1333E-01
     -3.451  0.1249E-05  0.1333E-01
     -3.335  0.2111E-08  0.1333E-01
     -3.220  0.2744E-05  0.1333E-01
     -3.105  0.3890E-03  0.1338E-01
     -2.990  0.5153E-02  0.1397E-01
     -2.875  0.7605E-02  0.1485E-01
     -2.760  0.1304E-02  0.1500E-01
     -2.645  0.2232E-04  0.1500E-01
     -2.529  0.3253E-07  0.1500E-01
     -2.414  0.1140E-10  0.1500E-01
     -2.299  0.4712E-07  0.1500E-01
     -2.184  0.2278E-04  0.1500E-01
     -2.069  0.9621E-03  0.1511E-01
     -1.954  0.4636E-02  0.1565E-01
     -1.839  0.5692E-02  0.1630E-01
     -1.723  0.2917E-02  0.1664E-01
     -1.608  0.2436E-03  0.1667E-01
     -1.493  0.1989E-05  0.1667E-01
     -1.378  0.1342E-08  0.1667E-01
     -1.263  0.1910E-11  0.1667E-01
     -1.148  0.1893E-07  0.1667E-01
     -1.033  0.1530E-04  0.1667E-01
     -0.918  0.1053E-02  0.1679E-01
     -0.802  0.7188E-02  0.1762E-01
     -0.687  0.5703E-02  0.1827E-01
     -0.572  0.5225E-03  0.1833E-01
     -0.457  0.1051E-02  0.1845E-01
     -0.342  0.1193E-01  0.1983E-01
     -0.227  0.1839E-01  0.2195E-01
     -0.112  0.5465E-02  0.2258E-01
      0.004  0.4195E-02  0.2306E-01
      0.119  0.2244E-02  0.2332E-01
      0.234  0.1381E-03  0.2333E-01
      0.349  0.7829E-06  0.2333E-01
      0.464  0.3676E-09  0.2333E-01
      0.579  0.4319E-07  0.2333E-01
      0.694  0.2149E-04  0.2334E-01
      0.809  0.9257E-03  0.2344E-01
      0.925  0.4073E-02  0.2391E-01
      1.040  0.2099E-02  0.2415E-01
      1.155  0.1183E-03  0.2417E-01
      1.270  0.3413E-04  0.2417E-01
      1.385  0.1624E-02  0.2436E-01
      1.500  0.7965E-02  0.2527E-01
      1.615  0.4564E-02  0.2580E-01
      1.731  0.3395E-03  0.2584E-01
      1.846  0.1439E-02  0.2600E-01
      1.961  0.4233E-02  0.2649E-01
      2.076  0.1907E-02  0.2671E-01
      2.191  0.5469E-02  0.2734E-01
      2.306  0.7419E-02  0.2820E-01
      2.421  0.1190E-02  0.2833E-01
      2.536  0.1114E-02  0.2846E-01
      2.652  0.9690E-02  0.2958E-01
      2.767  0.9780E-02  0.3070E-01
      2.882  0.1594E-02  0.3089E-01
      2.997  0.5537E-02  0.3152E-01
      3.112  0.7342E-02  0.3237E-01
      3.227  0.1792E-02  0.3258E-01
      3.342  0.7993E-02  0.3350E-01
      3.458  0.1115E-01  0.3478E-01
      3.573  0.1898E-02  0.3500E-01
      3.688  0.6179E-03  0.3507E-01
      3.803  0.3702E-02  0.3549E-01
      3.918  0.2718E-02  0.3581E-01
      4.033  0.2638E-03  0.3584E-01
      4.148  0.1275E-02  0.3598E-01
      4.263  0.4215E-02  0.3647E-01
      4.379  0.1641E-02  0.3666E-01
      4.494  0.6825E-04  0.3667E-01
      4.609  0.2112E-04  0.3667E-01
      4.724  0.1580E-02  0.3685E-01
      4.839  0.1253E-01  0.3829E-01
      4.954  0.1291E-01  0.3978E-01
      5.069  0.1874E-02  0.4000E-01
      5.185  0.3668E-04  0.4000E-01
      5.300  0.2285E-03  0.4003E-01
      5.415  0.3203E-02  0.4040E-01
      5.530  0.1069E-01  0.4163E-01
      5.645  0.1377E-01  0.4321E-01
      5.760  0.1020E-01  0.4439E-01
      5.875  0.6085E-02  0.4509E-01
      5.990  0.4509E-02  0.4561E-01
      6.106  0.1885E-02  0.4582E-01
      6.221  0.9463E-04  0.4583E-01
      6.336  0.4013E-03  0.4588E-01
      6.451  0.6931E-02  0.4668E-01
      6.566  0.1596E-01  0.4852E-01
      6.681  0.5470E-02  0.4915E-01
      6.796  0.1731E-02  0.4934E-01
      6.912  0.4254E-02  0.4983E-01
      7.027  0.2381E-02  0.5011E-01
      7.142  0.4420E-02  0.5062E-01
      7.257  0.4949E-02  0.5119E-01
      7.372  0.3656E-02  0.5161E-01
      7.487  0.4980E-03  0.5167E-01
      7.602  0.1670E-04  0.5167E-01
      7.717  0.6093E-03  0.5174E-01
      7.833  0.3741E-02  0.5217E-01
      7.948  0.2664E-02  0.5248E-01
      8.063  0.2121E-03  0.5250E-01
      8.178  0.1584E-05  0.5250E-01
      8.293  0.1205E-07  0.5250E-01
      8.408  0.8597E-05  0.5250E-01
      8.523  0.5650E-03  0.5257E-01
      8.639  0.3670E-02  0.5299E-01
      8.754  0.2760E-02  0.5331E-01
      8.869  0.2328E-03  0.5333E-01
      8.984  0.1851E-05  0.5333E-01
      9.099  0.1211E-08  0.5333E-01
      9.214  0.6096E-13  0.5333E-01
      9.329  0.0000E+00  0.5333E-01
      9.444  0.0000E+00  0.5333E-01
      9.560  0.0000E+00  0.5333E-01
      9.675  0.0000E+00  0.5333E-01
      9.790  0.0000E+00  0.5333E-01
      9.905  0.0000E+00  0.5333E-01
     10.020  0.0000E+00  0.5333E-01
     10.135  0.0000E+00  0.5333E-01
     10.250  0.0000E+00  0.5333E-01
     10.366  0.0000E+00  0.5333E-01
     10.481  0.0000E+00  0.5333E-01
     10.596  0.0000E+00  0.5333E-01
     10.711  0.0000E+00  0.5333E-01
     10.826  0.0000E+00  0.5333E-01
     10.941  0.0000E+00  0.5333E-01
     11.056  0.0000E+00  0.5333E-01
     11.171  0.0000E+00  0.5333E-01
     11.287  0.0000E+00  0.5333E-01
     11.402  0.0000E+00  0.5333E-01
     11.517  0.0000E+00  0.5333E-01
     11.632  0.0000E+00  0.5333E-01
     11.747  0.0000E+00  0.5333E-01
     11.862  0.0000E+00  0.5333E-01
     11.977  0.0000E+00  0.5333E-01
     12.093  0.0000E+00  0.5333E-01
     12.208  0.0000E+00  0.5333E-01
     12.323  0.0000E+00  0.5333E-01
     12.438  0.0000E+00  0.5333E-01
     12.553  0.0000E+00  0.5333E-01
     12.668  0.0000E+00  0.5333E-01
     12.783  0.0000E+00  0.5333E-01
     12.898  0.0000E+00  0.5333E-01
     13.014  0.0000E+00  0.5333E-01
     13.129  0.0000E+00  0.5333E-01
     13.244  0.0000E+00  0.5333E-01
     13.359  0.0000E+00  0.5333E-01
     13.474  0.0000E+00  0.5333E-01
     13.589  0.0000E+00  0.5333E-01
     13.704  0.0000E+00  0.5333E-01
     13.820  0.0000E+00  0.5333E-01
     13.935  0.0000E+00  0.5333E-01
     14.050  0.0000E+00  0.5333E-01
     14.165  0.1531E-15  0.5333E-01
     14.280  0.1126E-10  0.5333E-01
     14.395  0.6254E-07  0.5333E-01
     14.510  0.2746E-04  0.5334E-01
     14.626  0.1051E-02  0.5346E-01
     14.741  0.4144E-02  0.5393E-01
     14.856  0.1919E-02  0.5416E-01
     14.971  0.9785E-04  0.5417E-01
     15.086  0.2125E-03  0.5419E-01
     15.201  0.2683E-02  0.5450E-01
     15.316  0.4628E-02  0.5503E-01
     15.431  0.4654E-02  0.5557E-01
     15.547  0.2170E-02  0.5582E-01
     15.662  0.1283E-03  0.5583E-01
     15.777  0.4106E-03  0.5588E-01
     15.892  0.8312E-02  0.5684E-01
     16.007  0.2043E-01  0.5919E-01
     16.122  0.6760E-02  0.5997E-01
     16.237  0.2742E-03  0.6000E-01
     16.353  0.6686E-05  0.6000E-01
     16.468  0.4464E-03  0.6005E-01
     16.583  0.3822E-02  0.6049E-01
     16.698  0.6617E-02  0.6125E-01
     16.813  0.9604E-02  0.6236E-01
     16.928  0.1701E-01  0.6432E-01
     17.043  0.5706E-02  0.6497E-01
     17.158  0.6086E-03  0.6504E-01
     17.274  0.6569E-02  0.6580E-01
     17.389  0.1318E-01  0.6732E-01
     17.504  0.6777E-02  0.6810E-01
     17.619  0.1944E-02  0.6832E-01
     17.734  0.9883E-04  0.6833E-01
     17.849  0.6759E-03  0.6841E-01
     17.964  0.8268E-02  0.6936E-01
     18.080  0.1517E-01  0.7111E-01
     18.195  0.4641E-02  0.7164E-01
     18.310  0.1950E-03  0.7167E-01
     18.425  0.5047E-04  0.7167E-01
     18.540  0.1436E-02  0.7184E-01
     18.655  0.5254E-02  0.7244E-01
     18.770  0.5625E-02  0.7309E-01
     18.885  0.2010E-02  0.7332E-01
     19.001  0.1337E-03  0.7334E-01
     19.116  0.2072E-02  0.7358E-01
     19.231  0.1372E-01  0.7516E-01
     19.346  0.1207E-01  0.7655E-01
     19.461  0.6692E-02  0.7732E-01
     19.576  0.1170E-01  0.7866E-01
     19.691  0.4148E-02  0.7914E-01
     19.807  0.2297E-03  0.7917E-01
     19.922  0.1477E-05  0.7917E-01
     20.037  0.1001E-08  0.7917E-01
     20.152  0.4298E-06  0.7917E-01
     20.267  0.9510E-04  0.7918E-01
     20.382  0.1909E-02  0.7940E-01
     20.497  0.4148E-02  0.7987E-01
     20.612  0.1058E-02  0.8000E-01
     20.728  0.2785E-04  0.8000E-01
     20.843  0.6389E-07  0.8000E-01
     20.958  0.1159E-10  0.8000E-01
     21.073  0.1591E-15  0.8000E-01
     21.188  0.0000E+00  0.8000E-01
     21.303  0.0000E+00  0.8000E-01
     21.418  0.0000E+00  0.8000E-01
     21.534  0.0000E+00  0.8000E-01
     21.649  0.0000E+00  0.8000E-01
     21.764  0.0000E+00  0.8000E-01
     21.879  0.0000E+00  0.8000E-01
     21.994  0.0000E+00  0.8000E-01
