    4    4  300    1
  0.5731718E+01  0.2516520E-09  0.2516520E-09  0.4180357E-09  0.1000000E-15
  1.000000000000000E-004
  CAR 
 unknown system                          
     16      6     12
 
  0.1250000E+00  0.1250000E+00  0.2500000E+00  0.1250000E+00
    1      -10.211774   1.000000
    2       -7.014675   1.000000
    3       -0.255004   1.000000
    4        3.376541   1.000000
    5        4.825001   1.000000
    6        5.543187   1.000000
    7        7.103975   1.000000
    8        7.267553   1.000000
    9       15.934664   0.000000
   10       16.857240   0.000000
   11       17.461256   0.000000
   12       19.257548   0.000000
 
  0.3750000E+00  0.1250000E+00  0.2500000E+00  0.2500000E+00
    1       -6.631448   1.000000
    2       -3.831279   1.000000
    3       -2.968922   1.000000
    4       -0.314576   1.000000
    5        2.208077   1.000000
    6        3.012329   1.000000
    7        4.830683   1.000000
    8        5.566642   1.000000
    9       15.967804   0.000000
   10       16.882498   0.000000
   11       17.970602   0.000000
   12       19.489203   0.000000
 
 -0.3750000E+00  0.1250000E+00  0.2500000E+00  0.2500000E+00
    1       -8.712562   1.000000
    2       -5.589284   1.000000
    3       -0.340640   1.000000
    4        1.470169   1.000000
    5        2.652101   1.000000
    6        3.353078   1.000000
    7        5.736136   1.000000
    8        6.527261   1.000000
    9       15.924193   0.000000
   10       17.306954   0.000000
   11       18.036700   0.000000
   12       19.208274   0.000000
 
 -0.1250000E+00  0.1250000E+00  0.2500000E+00  0.1250000E+00
    1      -10.976067   1.000000
    2       -7.745996   1.000000
    3       -0.819216   1.000000
    4        5.431270   1.000000
    5        6.472925   1.000000
    6        6.852435   1.000000
    7        7.814260   1.000000
    8        8.623127   1.000000
    9       15.397571   0.000000
   10       16.576522   0.000000
   11       16.852480   0.000000
   12       18.729931   0.000000
 
  0.3750000E+00  0.3750000E+00  0.2500000E+00  0.1250000E+00
    1       -5.120335   1.000000
    2       -3.912634   1.000000
    3       -1.990885   1.000000
    4       -0.810735   1.000000
    5       -0.027781   1.000000
    6        2.652013   1.000000
    7        3.786221   1.000000
    8        4.880809   1.000000
    9       15.219543   0.000000
   10       18.599145   0.000000
   11       19.555926   0.000000
   12       20.424064   0.000000
 
 -0.3750000E+00  0.3750000E+00  0.2500000E+00  0.1250000E+00
    1       -7.990435   1.000000
    2       -4.916055   1.000000
    3       -1.852678   1.000000
    4        0.888808   1.000000
    5        1.903714   1.000000
    6        4.212637   1.000000
    7        5.947750   1.000000
    8        6.477458   1.000000
    9       14.699109   0.000000
   10       16.695777   0.000000
   11       17.306593   0.000000
   12       19.216177   0.000000
