Automatically generated mesh
       6
Reciprocal lattice
    0.12500000000000    0.12500000000000    0.25000000000000            12
    0.37500000000000    0.12500000000000    0.25000000000000            24
   -0.37500000000000    0.12500000000000    0.25000000000000            24
   -0.12500000000000    0.12500000000000    0.25000000000000            12
    0.37500000000000    0.37500000000000    0.25000000000000            12
   -0.37500000000000    0.37500000000000    0.25000000000000            12
