       N       E                     dE             d eps       ncg     rms          rms(c)
DAV:   1     0.257665154136E+02    0.25767E+02   -0.84448E+03   144   0.124E+03
DAV:   2    -0.354149186441E+02   -0.61181E+02   -0.56735E+02   204   0.211E+02
DAV:   3    -0.375435368101E+02   -0.21286E+01   -0.21188E+01   192   0.369E+01
DAV:   4    -0.375632103963E+02   -0.19674E-01   -0.19670E-01   168   0.392E+00
DAV:   5    -0.375636053825E+02   -0.39499E-03   -0.39488E-03   192   0.503E-01    0.774E+00
DAV:   6    -0.366358503950E+02    0.92775E+00   -0.61692E-01   144   0.634E+00    0.464E+00
DAV:   7    -0.363225613879E+02    0.31329E+00   -0.71538E-01   156   0.700E+00    0.103E+00
DAV:   8    -0.363250911146E+02   -0.25297E-02   -0.12447E-02   176   0.966E-01    0.562E-02
DAV:   9    -0.363251870383E+02   -0.95924E-04   -0.19726E-04   184   0.138E-01    0.278E-02
DAV:  10    -0.363252305842E+02   -0.43546E-04   -0.41800E-05   164   0.688E-02    0.378E-03
DAV:  11    -0.363252300957E+02    0.48848E-06   -0.71865E-07   148   0.752E-03
   1 F= -.36325216E+02 E0= -.36325216E+02  d E =-.363252E+02
       N       E                     dE             d eps       ncg     rms          rms(c)
DAV:   1    -0.363273366473E+02   -0.21061E-02   -0.52161E-02   148   0.219E+00    0.420E-02
DAV:   2    -0.363273633620E+02   -0.26715E-04   -0.48952E-04   184   0.198E-01    0.266E-02
DAV:   3    -0.363273533940E+02    0.99681E-05   -0.23102E-05   164   0.417E-02    0.454E-03
DAV:   4    -0.363273534265E+02   -0.32556E-07   -0.47289E-07   120   0.705E-03
   2 F= -.36327339E+02 E0= -.36327339E+02  d E =-.212335E-02
       N       E                     dE             d eps       ncg     rms          rms(c)
DAV:   1    -0.363277402551E+02   -0.38686E-03   -0.22757E-02   148   0.145E+00    0.276E-02
DAV:   2    -0.363277525065E+02   -0.12251E-04   -0.21786E-04   184   0.132E-01    0.175E-02
DAV:   3    -0.363277482666E+02    0.42400E-05   -0.10174E-05   164   0.277E-02    0.300E-03
DAV:   4    -0.363277482924E+02   -0.25787E-07   -0.21209E-07   108   0.473E-03
   3 F= -.36327734E+02 E0= -.36327734E+02  d E =-.251823E-02
       N       E                     dE             d eps       ncg     rms          rms(c)
DAV:   1    -0.363278180059E+02   -0.69739E-04   -0.79844E-04   168   0.277E-01    0.173E-02
DAV:   2    -0.363278134236E+02    0.45823E-05   -0.19110E-05   180   0.409E-02    0.115E-02
DAV:   3    -0.363278108232E+02    0.26003E-05   -0.52765E-06   160   0.215E-02    0.820E-04
DAV:   4    -0.363278108814E+02   -0.58123E-07   -0.30992E-07    84   0.488E-03
   4 F= -.36327797E+02 E0= -.36327797E+02  d E =-.625987E-04
       N       E                     dE             d eps       ncg     rms          rms(c)
DAV:   1    -0.363278337575E+02   -0.22934E-04   -0.59202E-04   168   0.239E-01    0.149E-02
DAV:   2    -0.363278303958E+02    0.33616E-05   -0.14313E-05   180   0.354E-02    0.990E-03
DAV:   3    -0.363278284966E+02    0.18993E-05   -0.39010E-06   164   0.185E-02    0.715E-04
DAV:   4    -0.363278285450E+02   -0.48378E-07   -0.23278E-07    84   0.422E-03
   5 F= -.36327814E+02 E0= -.36327814E+02  d E =-.802706E-04
       N       E                     dE             d eps       ncg     rms          rms(c)
DAV:   1    -0.363278285903E+02   -0.93727E-07   -0.47509E-08    84   0.225E-03    0.151E-04
DAV:   2    -0.363278285917E+02   -0.13889E-08   -0.32328E-09    84   0.618E-04
   6 F= -.36327814E+02 E0= -.36327814E+02  d E =-.803174E-04
       N       E                     dE             d eps       ncg     rms          rms(c)
DAV:   1    -0.363278285953E+02   -0.49757E-08   -0.58443E-08    84   0.242E-03    0.153E-04
DAV:   2    -0.363278285972E+02   -0.18611E-08   -0.31812E-09    80   0.637E-04
   7 F= -.36327814E+02 E0= -.36327814E+02  d E =-.803229E-04
       N       E                     dE             d eps       ncg     rms          rms(c)
DAV:   1    -0.363278286006E+02   -0.53021E-08   -0.53060E-09    72   0.715E-04    0.269E-05
DAV:   2    -0.363278286006E+02   -0.42064E-10   -0.29488E-10    72   0.193E-04
   8 F= -.36327814E+02 E0= -.36327814E+02  d E =-.803264E-04
       N       E                     dE             d eps       ncg     rms          rms(c)
DAV:   1    -0.363278286005E+02    0.13631E-09   -0.84280E-09    72   0.919E-04    0.600E-05
DAV:   2    -0.363278285997E+02    0.79137E-09   -0.46987E-10    72   0.244E-04
   9 F= -.36327814E+02 E0= -.36327814E+02  d E =-.803254E-04
       N       E                     dE             d eps       ncg     rms          rms(c)
DAV:   1    -0.363278285984E+02    0.20448E-08   -0.20119E-09    72   0.441E-04    0.199E-05
DAV:   2    -0.363278285986E+02   -0.17815E-09   -0.10327E-10    72   0.117E-04
  10 F= -.36327814E+02 E0= -.36327814E+02  d E =-.803243E-04
       N       E                     dE             d eps       ncg     rms          rms(c)
DAV:   1    -0.363278285988E+02   -0.40836E-09   -0.87914E-10    72   0.299E-04    0.213E-05
DAV:   2    -0.363278285992E+02   -0.41655E-09   -0.50011E-11    72   0.793E-05
  11 F= -.36327814E+02 E0= -.36327814E+02  d E =-.803250E-04
       N       E                     dE             d eps       ncg     rms          rms(c)
DAV:   1    -0.363278287192E+02   -0.12038E-06   -0.35513E-06   148   0.180E-02    0.801E-04
DAV:   2    -0.363278287045E+02    0.14694E-07   -0.62223E-08    72   0.243E-03
  12 F= -.36327814E+02 E0= -.36327814E+02  d E =-.104921E-06
