 vasp.6.2.1 16May21 (build Oct 21 2023 21:03:18) complex                        
  
 executed on             LinuxIFC date 2024.04.26  15:52:05
 running on    1 total cores
 distrk:  each k-point on    1 cores,    1 groups
 distr:  one band on NCORE=   1 cores,    1 groups


--------------------------------------------------------------------------------------------------------


 INCAR:
   ENCUT = 500.000000
   POTIM = 0.100000
   PSTRESS = 0.001000
   SIGMA = 0.100000
   EDIFF = 1.00e-06
   EDIFFG = -1.00e-03
   ALGO = normal
   GGA = PE
   PREC = accurate
   IALGO = 48
   IBRION = 2
   ISIF = 3
   ISMEAR = 0
   ISTART = 0
   ISYM = 2
   NPAR = 4
   NSIM = 4
   NSW = 300
   LCHARG = .FALSE.
   LPLANE = .TRUE.
   LWAVE = .FALSE.
   LREAL = .FALSE.

 POTCAR:    PAW_PBE C 08Apr2002                   
 -----------------------------------------------------------------------------
|                                                                             |
|           W    W    AA    RRRRR   N    N  II  N    N   GGGG   !!!           |
|           W    W   A  A   R    R  NN   N  II  NN   N  G    G  !!!           |
|           W    W  A    A  R    R  N N  N  II  N N  N  G       !!!           |
|           W WW W  AAAAAA  RRRRR   N  N N  II  N  N N  G  GGG   !            |
|           WW  WW  A    A  R   R   N   NN  II  N   NN  G    G                |
|           W    W  A    A  R    R  N    N  II  N    N   GGGG   !!!           |
|                                                                             |
|     The value NPAR = 4 specified in the INCAR file was overwritten,         |
|     because it was not compatible with the 1 processes available:           |
|     NPAR = 1                                                                |
|     was used instead, please check that this makes sense for your           |
|     machine.                                                                |
|                                                                             |
 -----------------------------------------------------------------------------

 POTCAR:    PAW_PBE C 08Apr2002                   
   SHA256 =  253f7b50bb8d59471dbedb8285d89021f4a42ed1a2c5d38a03a736e69125dd95 C/POTCAR              
   COPYR  = (c) Copyright 08Apr2002 Georg Kresse                                                    
   COPYR  = This file is part of the software VASP. Any use, copying, and all other rights are regul
   COPYR  = If you do not have a valid VASP license, you may not use, copy or distribute this file. 
   VRHFIN =C: s2p2                                                                                  
   LEXCH  = PE                                                                                      
   EATOM  =   147.1560 eV,   10.8157 Ry                                                             
                                                                                                    
   TITEL  = PAW_PBE C 08Apr2002                                                                     
   LULTRA =        F    use ultrasoft PP ?                                                          
   IUNSCR =        1    unscreen: 0-lin 1-nonlin 2-no                                               
   RPACOR =    1.200    partial core radius                                                         
   POMASS =   12.011; ZVAL   =    4.000    mass and valenz                                          
   RCORE  =    1.500    outmost cutoff radius                                                       
   RWIGS  =    1.630; RWIGS  =    0.863    wigner-seitz radius (au A)                               
   ENMAX  =  400.000; ENMIN  =  300.000 eV                                                          
   ICORE  =        2    local potential                                                             
   LCOR   =        T    correct aug charges                                                         
   LPAW   =        T    paw PP                                                                      
   EAUG   =  644.873                                                                                
   DEXC   =    0.000                                                                                
   RMAX   =    1.529    core radius for proj-oper                                                   
   RAUG   =    1.300    factor for augmentation sphere                                              
   RDEP   =    1.501    radius for radial grids                                                     
   RDEPT  =    1.300    core radius for aug-charge                                                  
                                                                                                    
   Atomic configuration                                                                             
    4 entries                                                                                       
     n  l   j            E        occ.                                                              
     1  0  0.50      -273.3789   2.0000                                                             
     2  0  0.50       -13.7508   2.0000                                                             
     2  1  0.50        -5.2854   2.0000                                                             
     3  2  1.50        -5.4423   0.0000                                                             
   Description                                                                                      
     l       E           TYP  RCUT    TYP  RCUT                                                     
     0    -13.7508458     23  1.200                                                                 
     0     -8.2022199     23  1.200                                                                 
     1     -5.2854383     23  1.500                                                                 
     1     34.0145650     23  1.500                                                                 
     2     -5.4423304      7  1.500                                                                 
  local pseudopotential read in
  partial core-charges read in
  partial kinetic energy density read in
  atomic valenz-charges read in
  non local Contribution for L=           0  read in
    real space projection operators read in
  non local Contribution for L=           0  read in
    real space projection operators read in
  non local Contribution for L=           1  read in
    real space projection operators read in
  non local Contribution for L=           1  read in
    real space projection operators read in
    PAW grid and wavefunctions read in
 
   number of l-projection  operators is LMAX  =           4
   number of lm-projection operators is LMMAX =           8
 
  PAW_PBE C 08Apr2002                   :
 energy of atom  1       EATOM= -147.1560
 kinetic energy error for atom=    0.0076 (will be added to EATOM!!)
 
 
 POSCAR:  C
  positions in cartesian coordinates
  No initial velocities read in
 exchange correlation table for  LEXCH =        8
   RHO(1)=    0.500       N(1)  =     2000
   RHO(2)=  100.500       N(2)  =     4000
 


--------------------------------------------------------------------------------------------------------


 ion  position               nearest neighbor table
   1  0.333  0.667  0.062-   2 1.54   2 1.54   2 1.54   4 1.57
   2  0.667  0.333  0.938-   1 1.54   1 1.54   1 1.54   3 1.57
   3  0.667  0.333  0.562-   4 1.54   4 1.54   4 1.54   2 1.57
   4  0.333  0.667  0.438-   3 1.54   3 1.54   3 1.54   1 1.57
 
  LATTYP: Found a hexagonal cell.
 ALAT       =     2.5165200352
 C/A-ratio  =     1.6611658092
  
  Lattice vectors:
  
 A1 = (   2.5165200352,   0.0000000000,   0.0000000000)
 A2 = (  -1.2582600176,   2.1793702796,   0.0000000000)
 A3 = (   0.0000000000,   0.0000000000,   4.1803570406)


Analysis of symmetry for initial positions (statically):
=====================================================================
 Subroutine PRICEL returns:
 Original cell was already a primitive cell.
 

 Routine SETGRP: Setting up the symmetry group for a 
 hexagonal supercell.


 Subroutine GETGRP returns: Found 24 space group operations
 (whereof 12 operations were pure point group operations)
 out of a pool of 24 trial point group operations.


The static configuration has the point symmetry D_3d.
 The point group associated with its full space group is D_6h.


Analysis of symmetry for dynamics (positions and initial velocities):
=====================================================================
 Subroutine PRICEL returns:
 Original cell was already a primitive cell.
 

 Routine SETGRP: Setting up the symmetry group for a 
 hexagonal supercell.


 Subroutine GETGRP returns: Found 24 space group operations
 (whereof 12 operations were pure point group operations)
 out of a pool of 24 trial point group operations.


The dynamic configuration has the point symmetry D_3d.
 The point group associated with its full space group is D_6h.


 Subroutine INISYM returns: Found 24 space group operations
 (whereof 12 operations are pure point group operations),
 and found     1 'primitive' translations


----------------------------------------------------------------------------------------

                                     Primitive cell                                     

  volume of cell :      22.9269

  direct lattice vectors                    reciprocal lattice vectors
     2.516520035  0.000000000  0.000000000     0.397374146  0.229424070  0.000000000
    -1.258260018  2.179370280  0.000000000     0.000000000  0.458848140  0.000000000
     0.000000000  0.000000000  4.180357041     0.000000000  0.000000000  0.239214017

  length of vectors
     2.516520035  2.516520035  4.180357041     0.458848140  0.458848140  0.239214017

  position of ions in fractional coordinates (direct lattice)
     0.333333333  0.666666667  0.062193776
     0.666666667  0.333333333  0.937806224
     0.666666667  0.333333333  0.562193776
     0.333333333  0.666666667  0.437806224

  ion indices of the primitive-cell ions
   primitive index   ion index
                 1           1
                 2           2
                 3           3
                 4           4

----------------------------------------------------------------------------------------

 
 
 KPOINTS: KPOINTS created by Atomic Simulation Env

Automatic generation of k-mesh.
 Grid dimensions read from file:
 generate k-points for:    4    4    2

 Generating k-lattice:

  Cartesian coordinates                     Fractional coordinates (reciprocal lattice)
     0.099343537  0.057356018  0.000000000     0.250000000 -0.000000000  0.000000000
     0.000000000  0.114712035  0.000000000     0.000000000  0.250000000  0.000000000
     0.000000000  0.000000000  0.119607008     0.000000000  0.000000000  0.500000000

  Length of vectors
     0.114712035  0.114712035  0.119607008

  Shift w.r.t. Gamma in fractional coordinates (k-lattice)
     0.500000000  0.500000000  0.500000000

 
 Subroutine IBZKPT returns following result:
 ===========================================
 
 Found      6 irreducible k-points:
 
 Following reciprocal coordinates:
            Coordinates               Weight
  0.125000  0.125000  0.250000     12.000000
  0.375000  0.125000  0.250000     24.000000
 -0.375000  0.125000  0.250000     24.000000
 -0.125000  0.125000  0.250000     12.000000
  0.375000  0.375000  0.250000     12.000000
 -0.375000  0.375000  0.250000     12.000000
 
 Following cartesian coordinates:
            Coordinates               Weight
  0.049672  0.086034  0.059804     12.000000
  0.149015  0.143390  0.059804     24.000000
 -0.149015 -0.028678  0.059804     24.000000
 -0.049672  0.028678  0.059804     12.000000
  0.149015  0.258102  0.059804     12.000000
 -0.149015  0.086034  0.059804     12.000000
 


--------------------------------------------------------------------------------------------------------




 Dimension of arrays:
   k-points           NKPTS =      6   k-points in BZ     NKDIM =      6   number of bands    NBANDS=     12
   number of dos      NEDOS =    301   number of ions     NIONS =      4
   non local maximal  LDIM  =      4   non local SUM 2l+1 LMDIM =      8
   total plane-waves  NPLWV =   9720
   max r-space proj   IRMAX =      1   max aug-charges    IRDMAX=   5202
   dimension x,y,z NGX =    18 NGY =   18 NGZ =   30
   dimension x,y,z NGXF=    36 NGYF=   36 NGZF=   60
   support grid    NGXF=    36 NGYF=   36 NGZF=   60
   ions per type =               4
   NGX,Y,Z   is equivalent  to a cutoff of  11.89, 11.89, 11.93 a.u.
   NGXF,Y,Z  is equivalent  to a cutoff of  23.78, 23.78, 23.86 a.u.

 SYSTEM =  unknown system                          
 POSCAR =   C                                      

 Startparameter for this run:
   NWRITE =      2    write-flag & timer
   PREC   = accura    normal or accurate (medium, high low for compatibility)
   ISTART =      0    job   : 0-new  1-cont  2-samecut
   ICHARG =      2    charge: 1-file 2-atom 10-const
   ISPIN  =      1    spin polarized calculation?
   LNONCOLLINEAR =      F non collinear calculations
   LSORBIT =      F    spin-orbit coupling
   INIWAV =      1    electr: 0-lowe 1-rand  2-diag
   LASPH  =      F    aspherical Exc in radial PAW
 Electronic Relaxation 1
   ENCUT  =  500.0 eV  36.75 Ry    6.06 a.u.   4.59  4.59  7.62*2*pi/ulx,y,z
   ENINI  =  500.0     initial cutoff
   ENAUG  =  644.9 eV  augmentation charge cutoff
   NELM   =     60;   NELMIN=  2; NELMDL= -5     # of ELM steps 
   EDIFF  = 0.1E-05   stopping-criterion for ELM
   LREAL  =      F    real-space projection
   NLSPLINE    = F    spline interpolate recip. space projectors
   LCOMPAT=      F    compatible to vasp.4.4
   GGA_COMPAT  = T    GGA compatible to vasp.4.4-vasp.4.6
   LMAXPAW     = -100 max onsite density
   LMAXMIX     =    2 max onsite mixed and CHGCAR
   VOSKOWN=      0    Vosko Wilk Nusair interpolation
   ROPT   =    0.00000
 Ionic relaxation
   EDIFFG = -.1E-02   stopping-criterion for IOM
   NSW    =    300    number of steps for IOM
   NBLOCK =      1;   KBLOCK =    300    inner block; outer block 
   IBRION =      2    ionic relax: 0-MD 1-quasi-New 2-CG
   NFREE  =      1    steps in history (QN), initial steepest desc. (CG)
   ISIF   =      3    stress and relaxation
   IWAVPR =     11    prediction:  0-non 1-charg 2-wave 3-comb
   ISYM   =      2    0-nonsym 1-usesym 2-fastsym
   LCORR  =      T    Harris-Foulkes like correction to forces

   POTIM  = 0.1000    time-step for ionic-motion
   TEIN   =    0.0    initial temperature
   TEBEG  =    0.0;   TEEND  =   0.0 temperature during run
   SMASS  =  -3.00    Nose mass-parameter (am)
   estimated Nose-frequenzy (Omega)   =  0.10E-29 period in steps = 0.63E+47 mass=  -0.145E-27a.u.
   SCALEE = 1.0000    scale energy and forces
   NPACO  =    256;   APACO  = 16.0  distance and # of slots for P.C.
   PSTRESS=    0.0 pullay stress

  Mass of Ions in am
   POMASS =  12.01
  Ionic Valenz
   ZVAL   =   4.00
  Atomic Wigner-Seitz radii
   RWIGS  =  -1.00
  virtual crystal weights 
   VCA    =   1.00
   NELECT =      16.0000    total number of electrons
   NUPDOWN=      -1.0000    fix difference up-down

 DOS related values:
   EMIN   =  10.00;   EMAX   =-10.00  energy-range for DOS
   EFERMI =   0.00
   ISMEAR =     0;   SIGMA  =   0.10  broadening in eV -4-tet -1-fermi 0-gaus

 Electronic relaxation 2 (details)
   IALGO  =     38    algorithm
   LDIAG  =      T    sub-space diagonalisation (order eigenvalues)
   LSUBROT=      F    optimize rotation matrix (better conditioning)
   TURBO    =      0    0=normal 1=particle mesh
   IRESTART =      0    0=no restart 2=restart with 2 vectors
   NREBOOT  =      0    no. of reboots
   NMIN     =      0    reboot dimension
   EREF     =   0.00    reference energy to select bands
   IMIX   =      4    mixing-type and parameters
     AMIX     =   0.40;   BMIX     =  1.00
     AMIX_MAG =   1.60;   BMIX_MAG =  1.00
     AMIN     =   0.10
     WC   =   100.;   INIMIX=   1;  MIXPRE=   1;  MAXMIX= -45

 Intra band minimization:
   WEIMIN = 0.0010     energy-eigenvalue tresh-hold
   EBREAK =  0.21E-07  absolut break condition
   DEPER  =   0.30     relativ break condition  

   TIME   =   0.40     timestep for ELM

  volume/ion in A,a.u.               =       5.73        38.68
  Fermi-wavevector in a.u.,A,eV,Ry     =   1.452111  2.744092 28.689614  2.108627
  Thomas-Fermi vector in A             =   2.569531
 
 Write flags
   LWAVE        =      F    write WAVECAR
   LDOWNSAMPLE  =      F    k-point downsampling of WAVECAR
   LCHARG       =      F    write CHGCAR
   LVTOT        =      F    write LOCPOT, total local potential
   LVHAR        =      F    write LOCPOT, Hartree potential only
   LELF         =      F    write electronic localiz. function (ELF)
   LORBIT       =      0    0 simple, 1 ext, 2 COOP (PROOUT), +10 PAW based schemes


 Dipole corrections
   LMONO  =      F    monopole corrections only (constant potential shift)
   LDIPOL =      F    correct potential (dipole corrections)
   IDIPOL =      0    1-x, 2-y, 3-z, 4-all directions 
   EPSILON=  1.0000000 bulk dielectric constant

 Exchange correlation treatment:
   GGA     =    PE    GGA type
   LEXCH   =     8    internal setting for exchange type
   VOSKOWN=      0    Vosko Wilk Nusair interpolation
   LHFCALC =     F    Hartree Fock is set to
   LHFONE  =     F    Hartree Fock one center treatment
   AEXX    =    0.0000 exact exchange contribution

 Linear response parameters
   LEPSILON=     F    determine dielectric tensor
   LRPA    =     F    only Hartree local field effects (RPA)
   LNABLA  =     F    use nabla operator in PAW spheres
   LVEL    =     F    velocity operator in full k-point grid
   LINTERFAST=   F  fast interpolation
   KINTER  =     0    interpolate to denser k-point grid
   CSHIFT  =0.1000    complex shift for real part using Kramers Kronig
   OMEGAMAX=  -1.0    maximum frequency
   DEG_THRESHOLD= 0.2000000E-02 threshold for treating states as degnerate
   RTIME   =   -0.100 relaxation time in fs
  (WPLASMAI=    0.000 imaginary part of plasma frequency in eV, 0.658/RTIME)
   DFIELD  = 0.0000000 0.0000000 0.0000000 field for delta impulse in time
 
 Orbital magnetization related:
   ORBITALMAG=     F  switch on orbital magnetization
   LCHIMAG   =     F  perturbation theory with respect to B field
   DQ        =  0.001000  dq finite difference perturbation B field
   LLRAUG    =     F  two centre corrections for induced B field



--------------------------------------------------------------------------------------------------------


 conjugate gradient relaxation of ions
 charge density and potential will be updated during run
 non-spin polarized calculation
 Variant of blocked Davidson
 Davidson routine will perform the subspace rotation
 perform sub-space diagonalisation
    after iterative eigenvector-optimisation
 modified Broyden-mixing scheme, WC =      100.0
 initial mixing is a Kerker type mixing with AMIX =  0.4000 and BMIX =      1.0000
 Hartree-type preconditioning will be used
 using additional bands            4
 reciprocal scheme for non local part
 use partial core corrections
 calculate Harris-corrections to forces 
   (improved forces if not selfconsistent)
 use gradient corrections 
 use of overlap-Matrix (Vanderbilt PP)
 Gauss-broadening in eV      SIGMA  =   0.10


--------------------------------------------------------------------------------------------------------


  energy-cutoff  :      500.00
  volume of cell :       22.93
      direct lattice vectors                 reciprocal lattice vectors
     2.516520035  0.000000000  0.000000000     0.397374146  0.229424070  0.000000000
    -1.258260018  2.179370280  0.000000000     0.000000000  0.458848140  0.000000000
     0.000000000  0.000000000  4.180357041     0.000000000  0.000000000  0.239214017

  length of vectors
     2.516520035  2.516520035  4.180357041     0.458848140  0.458848140  0.239214017


 
 k-points in units of 2pi/SCALE and weight: KPOINTS created by Atomic Simulation Env
   0.04967177  0.08603403  0.05980350       0.125
   0.14901530  0.14339004  0.05980350       0.250
  -0.14901530 -0.02867801  0.05980350       0.250
  -0.04967177  0.02867801  0.05980350       0.125
   0.14901530  0.25810208  0.05980350       0.125
  -0.14901530  0.08603403  0.05980350       0.125
 
 k-points in reciprocal lattice and weights: KPOINTS created by Atomic Simulation Env
   0.12500000  0.12500000  0.25000000       0.125
   0.37500000  0.12500000  0.25000000       0.250
  -0.37500000  0.12500000  0.25000000       0.250
  -0.12500000  0.12500000  0.25000000       0.125
   0.37500000  0.37500000  0.25000000       0.125
  -0.37500000  0.37500000  0.25000000       0.125
 
 position of ions in fractional coordinates (direct lattice) 
   0.33333333  0.66666667  0.06219378
   0.66666667  0.33333333  0.93780622
   0.66666667  0.33333333  0.56219378
   0.33333333  0.66666667  0.43780622
 
 position of ions in cartesian coordinates  (Angst):
   0.00000000  1.45291352  0.25999219
   1.25826002  0.72645676  3.92036485
   1.25826002  0.72645676  2.35017071
   0.00000000  1.45291352  1.83018633
 


--------------------------------------------------------------------------------------------------------


 k-point   1 :   0.1250 0.1250 0.2500  plane waves:     593
 k-point   2 :   0.3750 0.1250 0.2500  plane waves:     579
 k-point   3 :  -0.3750 0.1250 0.2500  plane waves:     582
 k-point   4 :  -0.1250 0.1250 0.2500  plane waves:     590
 k-point   5 :   0.3750 0.3750 0.2500  plane waves:     573
 k-point   6 :  -0.3750 0.3750 0.2500  plane waves:     579

 maximum and minimum number of plane-waves per node :       593      573

 maximum number of plane-waves:       593
 maximum index in each direction: 
   IXMAX=    4   IYMAX=    4   IZMAX=    7
   IXMIN=   -4   IYMIN=   -4   IZMIN=   -7


 serial   3D FFT for wavefunctions
 parallel 3D FFT for charge:
    minimum data exchange during FFTs selected (reduces bandwidth)


 total amount of memory used by VASP MPI-rank0    37938. kBytes
=======================================================================

   base      :      30000. kBytes
   nonl-proj :        265. kBytes
   fftplans  :       2732. kBytes
   grid      :       4209. kBytes
   one-center:         12. kBytes
   wavefun   :        720. kBytes
 
     INWAV:  cpu time    0.0000: real time    0.0000
 Broyden mixing: mesh for mixing (old mesh)
   NGX =  9   NGY =  9   NGZ = 15
  (NGX  = 36   NGY  = 36   NGZ  = 60)
  gives a total of   1215 points

 initial charge density was supplied:
 charge density of overlapping atoms calculated
 number of electron      16.0000000 magnetization 
 keeping initial charge density in first step


--------------------------------------------------------------------------------------------------------


 Maximum index for augmentation-charges         4850 (set IRDMAX)


--------------------------------------------------------------------------------------------------------


 First call to EWALD:  gamma=   0.624
 Maximum number of real-space cells 3x 3x 2
 Maximum number of reciprocal cells 2x 2x 4

    FEWALD:  cpu time    0.0004: real time    0.0004


--------------------------------------- Iteration      1(   1)  ---------------------------------------


    POTLOK:  cpu time    0.0123: real time    0.0139
    SETDIJ:  cpu time    0.0018: real time    0.0027
     EDDAV:  cpu time    0.0329: real time    0.0378
       DOS:  cpu time    0.0001: real time    0.0004
    --------------------------------------------
      LOOP:  cpu time    0.0471: real time    0.0548

 eigenvalue-minimisations  :   144
 total energy-change (2. order) : 0.2576652E+02  (-0.8444784E+03)
 number of electron      16.0000000 magnetization 
 augmentation part       16.0000000 magnetization 

 Free energy of the ion-electron system (eV)
  ---------------------------------------------------
  alpha Z        PSCENC =        57.32781593
  Ewald energy   TEWEN  =      -692.52211366
  -Hartree energ DENC   =       -36.44228482
  -exchange      EXHF   =         0.00000000
  -V(xc)+E(xc)   XCENC  =        54.69857594
  PAW double counting   =       434.08818552     -436.36580876
  entropy T*S    EENTRO =        -0.00206859
  eigenvalues    EBANDS =        56.39052716
  atomic energy  EATOM  =       588.59368669
  Solvation  Ediel_sol  =         0.00000000
  ---------------------------------------------------
  free energy    TOTEN  =        25.76651541 eV

  energy without entropy =       25.76858401  energy(sigma->0) =       25.76754971


--------------------------------------------------------------------------------------------------------




--------------------------------------- Iteration      1(   2)  ---------------------------------------


     EDDAV:  cpu time    0.0338: real time    0.0338
       DOS:  cpu time    0.0001: real time    0.0001
    --------------------------------------------
      LOOP:  cpu time    0.0339: real time    0.0339

 eigenvalue-minimisations  :   204
 total energy-change (2. order) :-0.6118143E+02  (-0.5673462E+02)
 number of electron      16.0000000 magnetization 
 augmentation part       16.0000000 magnetization 

 Free energy of the ion-electron system (eV)
  ---------------------------------------------------
  alpha Z        PSCENC =        57.32781593
  Ewald energy   TEWEN  =      -692.52211366
  -Hartree energ DENC   =       -36.44228482
  -exchange      EXHF   =         0.00000000
  -V(xc)+E(xc)   XCENC  =        54.69857594
  PAW double counting   =       434.08818552     -436.36580876
  entropy T*S    EENTRO =        -0.00000000
  eigenvalues    EBANDS =        -4.79297549
  atomic energy  EATOM  =       588.59368669
  Solvation  Ediel_sol  =         0.00000000
  ---------------------------------------------------
  free energy    TOTEN  =       -35.41491864 eV

  energy without entropy =      -35.41491864  energy(sigma->0) =      -35.41491864


--------------------------------------------------------------------------------------------------------




--------------------------------------- Iteration      1(   3)  ---------------------------------------


     EDDAV:  cpu time    0.0307: real time    0.0307
       DOS:  cpu time    0.0001: real time    0.0001
    --------------------------------------------
      LOOP:  cpu time    0.0308: real time    0.0308

 eigenvalue-minimisations  :   192
 total energy-change (2. order) :-0.2128618E+01  (-0.2118794E+01)
 number of electron      16.0000000 magnetization 
 augmentation part       16.0000000 magnetization 

 Free energy of the ion-electron system (eV)
  ---------------------------------------------------
  alpha Z        PSCENC =        57.32781593
  Ewald energy   TEWEN  =      -692.52211366
  -Hartree energ DENC   =       -36.44228482
  -exchange      EXHF   =         0.00000000
  -V(xc)+E(xc)   XCENC  =        54.69857594
  PAW double counting   =       434.08818552     -436.36580876
  entropy T*S    EENTRO =        -0.00000000
  eigenvalues    EBANDS =        -6.92159366
  atomic energy  EATOM  =       588.59368669
  Solvation  Ediel_sol  =         0.00000000
  ---------------------------------------------------
  free energy    TOTEN  =       -37.54353681 eV

  energy without entropy =      -37.54353681  energy(sigma->0) =      -37.54353681


--------------------------------------------------------------------------------------------------------




--------------------------------------- Iteration      1(   4)  ---------------------------------------


     EDDAV:  cpu time    0.0283: real time    0.0283
       DOS:  cpu time    0.0001: real time    0.0001
    --------------------------------------------
      LOOP:  cpu time    0.0284: real time    0.0284

 eigenvalue-minimisations  :   168
 total energy-change (2. order) :-0.1967359E-01  (-0.1966991E-01)
 number of electron      16.0000000 magnetization 
 augmentation part       16.0000000 magnetization 

 Free energy of the ion-electron system (eV)
  ---------------------------------------------------
  alpha Z        PSCENC =        57.32781593
  Ewald energy   TEWEN  =      -692.52211366
  -Hartree energ DENC   =       -36.44228482
  -exchange      EXHF   =         0.00000000
  -V(xc)+E(xc)   XCENC  =        54.69857594
  PAW double counting   =       434.08818552     -436.36580876
  entropy T*S    EENTRO =        -0.00000000
  eigenvalues    EBANDS =        -6.94126724
  atomic energy  EATOM  =       588.59368669
  Solvation  Ediel_sol  =         0.00000000
  ---------------------------------------------------
  free energy    TOTEN  =       -37.56321040 eV

  energy without entropy =      -37.56321040  energy(sigma->0) =      -37.56321040


--------------------------------------------------------------------------------------------------------




--------------------------------------- Iteration      1(   5)  ---------------------------------------


     EDDAV:  cpu time    0.0311: real time    0.0311
       DOS:  cpu time    0.0001: real time    0.0001
    CHARGE:  cpu time    0.0036: real time    0.0036
    MIXING:  cpu time    0.0004: real time    0.0005
    --------------------------------------------
      LOOP:  cpu time    0.0352: real time    0.0353

 eigenvalue-minimisations  :   192
 total energy-change (2. order) :-0.3949862E-03  (-0.3948814E-03)
 number of electron      15.9999998 magnetization 
 augmentation part        0.3941244 magnetization 

 Broyden mixing:
  rms(total) = 0.77377E+00    rms(broyden)= 0.77367E+00
  rms(prec ) = 0.14416E+01
  weight for this iteration     100.00

 Free energy of the ion-electron system (eV)
  ---------------------------------------------------
  alpha Z        PSCENC =        57.32781593
  Ewald energy   TEWEN  =      -692.52211366
  -Hartree energ DENC   =       -36.44228482
  -exchange      EXHF   =         0.00000000
  -V(xc)+E(xc)   XCENC  =        54.69857594
  PAW double counting   =       434.08818552     -436.36580876
  entropy T*S    EENTRO =        -0.00000000
  eigenvalues    EBANDS =        -6.94166223
  atomic energy  EATOM  =       588.59368669
  Solvation  Ediel_sol  =         0.00000000
  ---------------------------------------------------
  free energy    TOTEN  =       -37.56360538 eV

  energy without entropy =      -37.56360538  energy(sigma->0) =      -37.56360538


--------------------------------------------------------------------------------------------------------




--------------------------------------- Iteration      1(   6)  ---------------------------------------


    POTLOK:  cpu time    0.0114: real time    0.0114
    SETDIJ:  cpu time    0.0017: real time    0.0017
     EDDAV:  cpu time    0.0257: real time    0.0257
       DOS:  cpu time    0.0001: real time    0.0001
    CHARGE:  cpu time    0.0035: real time    0.0035
    MIXING:  cpu time    0.0004: real time    0.0004
    --------------------------------------------
      LOOP:  cpu time    0.0427: real time    0.0427

 eigenvalue-minimisations  :   144
 total energy-change (2. order) : 0.9277550E+00  (-0.6169193E-01)
 number of electron      15.9999998 magnetization 
 augmentation part        0.3846850 magnetization 

 Broyden mixing:
  rms(total) = 0.46382E+00    rms(broyden)= 0.46381E+00
  rms(prec ) = 0.80223E+00
  weight for this iteration     100.00

 eigenvalues of (default mixing * dielectric matrix)
  average eigenvalue GAMMA=   2.3373
  2.3373

 Free energy of the ion-electron system (eV)
  ---------------------------------------------------
  alpha Z        PSCENC =        57.32781593
  Ewald energy   TEWEN  =      -692.52211366
  -Hartree energ DENC   =       -44.03145174
  -exchange      EXHF   =         0.00000000
  -V(xc)+E(xc)   XCENC  =        55.36992028
  PAW double counting   =       750.55137301     -753.06185085
  entropy T*S    EENTRO =        -0.00000000
  eigenvalues    EBANDS =         1.13676994
  atomic energy  EATOM  =       588.59368669
  Solvation  Ediel_sol  =         0.00000000
  ---------------------------------------------------
  free energy    TOTEN  =       -36.63585039 eV

  energy without entropy =      -36.63585039  energy(sigma->0) =      -36.63585039


--------------------------------------------------------------------------------------------------------




--------------------------------------- Iteration      1(   7)  ---------------------------------------


    POTLOK:  cpu time    0.0113: real time    0.0113
    SETDIJ:  cpu time    0.0017: real time    0.0017
     EDDAV:  cpu time    0.0270: real time    0.0270
       DOS:  cpu time    0.0001: real time    0.0001
    CHARGE:  cpu time    0.0035: real time    0.0035
    MIXING:  cpu time    0.0005: real time    0.0006
    --------------------------------------------
      LOOP:  cpu time    0.0440: real time    0.0442

 eigenvalue-minimisations  :   156
 total energy-change (2. order) : 0.3132890E+00  (-0.7153813E-01)
 number of electron      15.9999998 magnetization 
 augmentation part        0.3740110 magnetization 

 Broyden mixing:
  rms(total) = 0.10278E+00    rms(broyden)= 0.10275E+00
  rms(prec ) = 0.11873E+00
  weight for this iteration     100.00

 eigenvalues of (default mixing * dielectric matrix)
  average eigenvalue GAMMA=   2.2464
  1.9867  2.5060

 Free energy of the ion-electron system (eV)
  ---------------------------------------------------
  alpha Z        PSCENC =        57.32781593
  Ewald energy   TEWEN  =      -692.52211366
  -Hartree energ DENC   =       -53.86049169
  -exchange      EXHF   =         0.00000000
  -V(xc)+E(xc)   XCENC  =        56.26142806
  PAW double counting   =      1352.11159222    -1354.84564902
  entropy T*S    EENTRO =        -0.00000000
  eigenvalues    EBANDS =        10.61117007
  atomic energy  EATOM  =       588.59368669
  Solvation  Ediel_sol  =         0.00000000
  ---------------------------------------------------
  free energy    TOTEN  =       -36.32256139 eV

  energy without entropy =      -36.32256139  energy(sigma->0) =      -36.32256139


--------------------------------------------------------------------------------------------------------




--------------------------------------- Iteration      1(   8)  ---------------------------------------


    POTLOK:  cpu time    0.0117: real time    0.0117
    SETDIJ:  cpu time    0.0017: real time    0.0017
     EDDAV:  cpu time    0.0297: real time    0.0297
       DOS:  cpu time    0.0001: real time    0.0001
    CHARGE:  cpu time    0.0035: real time    0.0035
    MIXING:  cpu time    0.0004: real time    0.0004
    --------------------------------------------
      LOOP:  cpu time    0.0471: real time    0.0471

 eigenvalue-minimisations  :   176
 total energy-change (2. order) :-0.2529727E-02  (-0.1244746E-02)
 number of electron      15.9999998 magnetization 
 augmentation part        0.3742119 magnetization 

 Broyden mixing:
  rms(total) = 0.56241E-02    rms(broyden)= 0.56112E-02
  rms(prec ) = 0.90397E-02
  weight for this iteration     100.00

 eigenvalues of (default mixing * dielectric matrix)
  average eigenvalue GAMMA=   2.0009
  1.3688  2.5008  2.1331

 Free energy of the ion-electron system (eV)
  ---------------------------------------------------
  alpha Z        PSCENC =        57.32781593
  Ewald energy   TEWEN  =      -692.52211366
  -Hartree energ DENC   =       -53.92176793
  -exchange      EXHF   =         0.00000000
  -V(xc)+E(xc)   XCENC  =        56.27638253
  PAW double counting   =      1511.26974662    -1513.94373003
  entropy T*S    EENTRO =        -0.00000000
  eigenvalues    EBANDS =        10.59488873
  atomic energy  EATOM  =       588.59368669
  Solvation  Ediel_sol  =         0.00000000
  ---------------------------------------------------
  free energy    TOTEN  =       -36.32509111 eV

  energy without entropy =      -36.32509111  energy(sigma->0) =      -36.32509111


--------------------------------------------------------------------------------------------------------




--------------------------------------- Iteration      1(   9)  ---------------------------------------


    POTLOK:  cpu time    0.0115: real time    0.0115
    SETDIJ:  cpu time    0.0018: real time    0.0018
     EDDAV:  cpu time    0.0305: real time    0.0305
       DOS:  cpu time    0.0001: real time    0.0001
    CHARGE:  cpu time    0.0034: real time    0.0034
    MIXING:  cpu time    0.0004: real time    0.0004
    --------------------------------------------
      LOOP:  cpu time    0.0478: real time    0.0478

 eigenvalue-minimisations  :   184
 total energy-change (2. order) :-0.9592369E-04  (-0.1972642E-04)
 number of electron      15.9999998 magnetization 
 augmentation part        0.3742130 magnetization 

 Broyden mixing:
  rms(total) = 0.27812E-02    rms(broyden)= 0.27804E-02
  rms(prec ) = 0.41453E-02
  weight for this iteration     100.00

 eigenvalues of (default mixing * dielectric matrix)
  average eigenvalue GAMMA=   2.1092
  1.0154  2.0177  2.7019  2.7019

 Free energy of the ion-electron system (eV)
  ---------------------------------------------------
  alpha Z        PSCENC =        57.32781593
  Ewald energy   TEWEN  =      -692.52211366
  -Hartree energ DENC   =       -53.87122982
  -exchange      EXHF   =         0.00000000
  -V(xc)+E(xc)   XCENC  =        56.27227512
  PAW double counting   =      1512.29693825    -1514.96551723
  entropy T*S    EENTRO =        -0.00000000
  eigenvalues    EBANDS =        10.54295768
  atomic energy  EATOM  =       588.59368669
  Solvation  Ediel_sol  =         0.00000000
  ---------------------------------------------------
  free energy    TOTEN  =       -36.32518704 eV

  energy without entropy =      -36.32518704  energy(sigma->0) =      -36.32518704


--------------------------------------------------------------------------------------------------------




--------------------------------------- Iteration      1(  10)  ---------------------------------------


    POTLOK:  cpu time    0.0236: real time    0.0237
    SETDIJ:  cpu time    0.0037: real time    0.0037
     EDDAV:  cpu time    0.0536: real time    0.0536
       DOS:  cpu time    0.0001: real time    0.0001
    CHARGE:  cpu time    0.0037: real time    0.0037
    MIXING:  cpu time    0.0005: real time    0.0005
    --------------------------------------------
      LOOP:  cpu time    0.0851: real time    0.0853

 eigenvalue-minimisations  :   164
 total energy-change (2. order) :-0.4354591E-04  (-0.4179952E-05)
 number of electron      15.9999998 magnetization 
 augmentation part        0.3742224 magnetization 

 Broyden mixing:
  rms(total) = 0.37838E-03    rms(broyden)= 0.37821E-03
  rms(prec ) = 0.61788E-03
  weight for this iteration     100.00

 eigenvalues of (default mixing * dielectric matrix)
  average eigenvalue GAMMA=   1.8818
  2.8177  2.4872  2.0290  1.0377  1.0377

 Free energy of the ion-electron system (eV)
  ---------------------------------------------------
  alpha Z        PSCENC =        57.32781593
  Ewald energy   TEWEN  =      -692.52211366
  -Hartree energ DENC   =       -53.89515243
  -exchange      EXHF   =         0.00000000
  -V(xc)+E(xc)   XCENC  =        56.27450961
  PAW double counting   =      1507.89385337    -1510.56145092
  entropy T*S    EENTRO =        -0.00000000
  eigenvalues    EBANDS =        10.56362082
  atomic energy  EATOM  =       588.59368669
  Solvation  Ediel_sol  =         0.00000000
  ---------------------------------------------------
  free energy    TOTEN  =       -36.32523058 eV

  energy without entropy =      -36.32523058  energy(sigma->0) =      -36.32523058


--------------------------------------------------------------------------------------------------------




--------------------------------------- Iteration      1(  11)  ---------------------------------------


    POTLOK:  cpu time    0.0120: real time    0.0120
    SETDIJ:  cpu time    0.0017: real time    0.0017
     EDDAV:  cpu time    0.0276: real time    0.0276
       DOS:  cpu time    0.0001: real time    0.0001
    --------------------------------------------
      LOOP:  cpu time    0.0413: real time    0.0414

 eigenvalue-minimisations  :   148
 total energy-change (2. order) : 0.4884848E-06  (-0.7186451E-07)
 number of electron      15.9999998 magnetization 
 augmentation part        0.3742224 magnetization 

 Free energy of the ion-electron system (eV)
  ---------------------------------------------------
  alpha Z        PSCENC =        57.32781593
  Ewald energy   TEWEN  =      -692.52211366
  -Hartree energ DENC   =       -53.90239564
  -exchange      EXHF   =         0.00000000
  -V(xc)+E(xc)   XCENC  =        56.27516523
  PAW double counting   =      1508.60655468    -1511.27437021
  entropy T*S    EENTRO =        -0.00000000
  eigenvalues    EBANDS =        10.57042688
  atomic energy  EATOM  =       588.59368669
  Solvation  Ediel_sol  =         0.00000000
  ---------------------------------------------------
  free energy    TOTEN  =       -36.32523010 eV

  energy without entropy =      -36.32523010  energy(sigma->0) =      -36.32523010


--------------------------------------------------------------------------------------------------------




 average (electrostatic) potential at core
  the test charge radii are     0.6991
  (the norm of the test charge is              1.0000)
       1 -45.5498       2 -45.5498       3 -45.5498       4 -45.5498
 
 
 
 E-fermi :   9.0265     XC(G=0): -13.1956     alpha+bet :-17.4857

 Fermi energy:         9.0264724176

 k-point     1 :       0.1250    0.1250    0.2500
  band No.  band energies     occupation 
      1     -10.2218      2.00000
      2      -7.0252      2.00000
      3      -0.2329      2.00000
      4       3.3041      2.00000
      5       4.7616      2.00000
      6       5.4743      2.00000
      7       7.1221      2.00000
      8       7.1748      2.00000
      9      15.8650      0.00000
     10      16.8023      0.00000
     11      17.3311      0.00000
     12      19.1728      0.00000

 k-point     2 :       0.3750    0.1250    0.2500
  band No.  band energies     occupation 
      1      -6.6588      2.00000
      2      -3.8567      2.00000
      3      -3.0089      2.00000
      4      -0.3576      2.00000
      5       2.1775      2.00000
      6       2.9921      2.00000
      7       4.7760      2.00000
      8       5.5638      2.00000
      9      15.9476      0.00000
     10      16.7877      0.00000
     11      17.8625      0.00000
     12      19.4489      0.00000

 k-point     3 :      -0.3750    0.1250    0.2500
  band No.  band energies     occupation 
      1      -8.7295      2.00000
      2      -5.6067      2.00000
      3      -0.3738      2.00000
      4       1.4630      2.00000
      5       2.5975      2.00000
      6       3.2871      2.00000
      7       5.6585      2.00000
      8       6.5462      2.00000
      9      15.8665      0.00000
     10      17.1949      0.00000
     11      17.9880      0.00000
     12      19.1362      0.00000

 k-point     4 :      -0.1250    0.1250    0.2500
  band No.  band energies     occupation 
      1     -10.9827      2.00000
      2      -7.7530      2.00000
      3      -0.7944      2.00000
      4       5.3518      2.00000
      5       6.3894      2.00000
      6       6.8817      2.00000
      7       7.7355      2.00000
      8       8.5198      2.00000
      9      15.3327      0.00000
     10      16.5277      0.00000
     11      16.7227      0.00000
     12      18.6129      0.00000

 k-point     5 :       0.3750    0.3750    0.2500
  band No.  band energies     occupation 
      1      -5.1554      2.00000
      2      -3.9465      2.00000
      3      -2.0311      2.00000
      4      -0.8545      2.00000
      5      -0.0697      2.00000
      6       2.5954      2.00000
      7       3.7946      2.00000
      8       4.8932      2.00000
      9      15.2577      0.00000
     10      18.4808      0.00000
     11      19.4296      0.00000
     12      20.3086      0.00000

 k-point     6 :      -0.3750    0.3750    0.2500
  band No.  band energies     occupation 
      1      -8.0109      2.00000
      2      -4.9367      2.00000
      3      -1.8942      2.00000
      4       0.8475      2.00000
      5       1.9069      2.00000
      6       4.1394      2.00000
      7       5.9744      2.00000
      8       6.3849      2.00000
      9      14.6179      0.00000
     10      16.5738      0.00000
     11      17.2541      0.00000
     12      19.2305      0.00000


--------------------------------------------------------------------------------------------------------


 soft charge-density along one line, spin component           1
         0         1         2         3         4         5         6         7         8         9
 total charge-density along one line
 
 pseudopotential strength for first ion, spin component:           1
  9.443  12.540  -0.000   0.000   0.000   0.000   0.000  -0.000
 12.540  16.651  -0.000   0.000   0.000   0.000   0.000  -0.000
 -0.000  -0.000  -3.671  -0.000  -0.000   7.190   0.000   0.000
  0.000   0.000  -0.000  -3.671   0.000   0.000   7.190  -0.000
  0.000   0.000  -0.000   0.000  -3.671   0.000  -0.000   7.190
  0.000   0.000   7.190   0.000   0.000 -16.180  -0.000  -0.000
  0.000   0.000   0.000   7.190  -0.000  -0.000 -16.181   0.000
 -0.000  -0.000   0.000  -0.000   7.190  -0.000   0.000 -16.180
 total augmentation occupancy for first ion, spin component:           1
  7.375  -3.244   0.000  -0.045  -0.000   0.000  -0.007  -0.000
 -3.244   1.513   0.000   0.024  -0.000   0.000   0.004   0.000
  0.000   0.000   1.562  -0.000  -0.000   0.128  -0.000  -0.000
 -0.045   0.024  -0.000   1.531   0.000   0.000   0.125   0.000
 -0.000  -0.000  -0.000   0.000   1.562  -0.000   0.000   0.128
  0.000   0.000   0.128   0.000  -0.000   0.012   0.000  -0.000
 -0.007   0.004  -0.000   0.125   0.000   0.000   0.012  -0.000
 -0.000   0.000  -0.000   0.000   0.128  -0.000  -0.000   0.012


------------------------ aborting loop because EDIFF is reached ----------------------------------------


    CHARGE:  cpu time    0.0037: real time    0.0037
    FORLOC:  cpu time    0.0009: real time    0.0010
    FORNL :  cpu time    0.0063: real time    0.0064
    STRESS:  cpu time    0.0185: real time    0.0185
    FORCOR:  cpu time    0.0121: real time    0.0121
    FORHAR:  cpu time    0.0028: real time    0.0028
    MIXING:  cpu time    0.0005: real time    0.0005
    OFIELD:  cpu time    0.0000: real time    0.0000

  FORCE on cell =-STRESS in cart. coord.  units (eV):
  Direction    XX          YY          ZZ          XY          YZ          ZX
  --------------------------------------------------------------------------------------
  Alpha Z    57.32782    57.32782    57.32782
  Ewald    -230.62121  -230.62121  -231.27949    -0.00000     0.00000     0.00000
  Hartree    17.35019    17.35019    19.20248    -0.00000    -0.00000    -0.00000
  E(xc)     -60.73800   -60.73800   -60.70439    -0.00000    -0.00000    -0.00000
  Local     -22.37129   -22.37131   -24.14609    -0.00001    -0.00000    -0.00000
  n-local   -14.34182   -13.86635   -13.83076    -0.25971    -0.00199    -0.05139
  augment    -1.42101    -1.42100    -1.42019     0.00002     0.00000    -0.00000
  Kinetic   253.64014   254.83182   254.90212     0.53100     0.53610    -0.15435
  Fock        0.00000     0.00000     0.00000     0.00000     0.00000     0.00000
  -------------------------------------------------------------------------------------
  Total      -0.34161    -0.34161     0.05149     0.00000     0.00000    -0.00000
  in kB     -23.87251   -23.87251     3.59801     0.00000     0.00000    -0.00000
  external pressure =      -14.72 kB  Pullay stress =        0.00 kB


 VOLUME and BASIS-vectors are now :
 -----------------------------------------------------------------------------
  energy-cutoff  :      500.00
  volume of cell :       22.93
      direct lattice vectors                 reciprocal lattice vectors
     2.516520035  0.000000000  0.000000000     0.397374146  0.229424070  0.000000000
    -1.258260018  2.179370280  0.000000000     0.000000000  0.458848140  0.000000000
     0.000000000  0.000000000  4.180357041     0.000000000  0.000000000  0.239214017

  length of vectors
     2.516520035  2.516520035  4.180357041     0.458848140  0.458848140  0.239214017


 FORCES acting on ions
    electron-ion (+dipol)            ewald-force                    non-local-force                 convergence-correction
 -----------------------------------------------------------------------------------------------
   0.894E-08 -.577E-07 -.499E+01   -.831E-11 0.481E-11 0.505E+01   0.171E-16 0.481E-17 0.199E+00   -.131E-07 0.754E-08 0.167E-03
   -.894E-08 0.577E-07 0.499E+01   0.831E-11 -.481E-11 -.505E+01   -.149E-16 0.141E-17 -.199E+00   0.131E-07 -.754E-08 -.167E-03
   -.545E-07 -.211E-07 -.499E+01   0.831E-11 -.481E-11 0.505E+01   -.186E-16 0.544E-17 0.199E+00   0.131E-07 -.754E-08 0.167E-03
   0.545E-07 0.211E-07 0.499E+01   -.831E-11 0.481E-11 -.505E+01   0.213E-16 -.716E-17 -.199E+00   -.131E-07 0.754E-08 -.167E-03
 -----------------------------------------------------------------------------------------------
   -.583E-13 0.378E-12 -.107E-11   0.152E-14 0.994E-16 0.355E-14   0.490E-17 0.450E-17 0.278E-16   -.604E-14 -.323E-15 -.214E-14
 
 
 POSITION                                       TOTAL-FORCE (eV/Angst)
 -----------------------------------------------------------------------------------
      0.00000      1.45291      0.25999         0.000000      0.000000      0.252633
      1.25826      0.72646      3.92036         0.000000      0.000000     -0.252633
      1.25826      0.72646      2.35017         0.000000     -0.000000      0.252633
      0.00000      1.45291      1.83019        -0.000000     -0.000000     -0.252633
 -----------------------------------------------------------------------------------
    total drift:                               -0.000000      0.000000     -0.000000


--------------------------------------------------------------------------------------------------------



  FREE ENERGIE OF THE ION-ELECTRON SYSTEM (eV)
  ---------------------------------------------------
  free  energy   TOTEN  =       -36.32523010 eV

  energy  without entropy=      -36.32523010  energy(sigma->0) =      -36.32523010
  enthalpy is  TOTEN    =       -36.32521579 eV   P V=        0.00001431



--------------------------------------------------------------------------------------------------------


    POTLOK:  cpu time    0.0130: real time    0.0130


--------------------------------------------------------------------------------------------------------




--------------------------------------------------------------------------------------------------------


    WAVPRE:  cpu time    0.0028: real time    0.0030
    FEWALD:  cpu time    0.0000: real time    0.0000
    GENKIN:  cpu time    0.0004: real time    0.0004
    ORTHCH:  cpu time    0.0008: real time    0.0008
     LOOP+:  cpu time    0.5484: real time    0.5573


--------------------------------------- Iteration      2(   1)  ---------------------------------------


    POTLOK:  cpu time    0.0117: real time    0.0117
    SETDIJ:  cpu time    0.0017: real time    0.0017
     EDDAV:  cpu time    0.0271: real time    0.0272
       DOS:  cpu time    0.0001: real time    0.0001
    CHARGE:  cpu time    0.0036: real time    0.0036
    MIXING:  cpu time    0.0004: real time    0.0004
    --------------------------------------------
      LOOP:  cpu time    0.0446: real time    0.0448

 eigenvalue-minimisations  :   148
 total energy-change (2. order) :-0.2106063E-02  (-0.5216075E-02)
 number of electron      15.9999999 magnetization 
 augmentation part        0.3746167 magnetization 

 Broyden mixing:
  rms(total) = 0.42037E-02    rms(broyden)= 0.41958E-02
  rms(prec ) = 0.76450E-02
  weight for this iteration     100.00

 Free energy of the ion-electron system (eV)
  ---------------------------------------------------
  alpha Z        PSCENC =        57.41528580
  Ewald energy   TEWEN  =      -692.92269725
  -Hartree energ DENC   =       -53.90193965
  -exchange      EXHF   =         0.00000000
  -V(xc)+E(xc)   XCENC  =        56.30109817
  PAW double counting   =      1508.58977401    -1511.25767913
  entropy T*S    EENTRO =        -0.00000000
  eigenvalues    EBANDS =        10.85513472
  atomic energy  EATOM  =       588.59368669
  Solvation  Ediel_sol  =         0.00000000
  ---------------------------------------------------
  free energy    TOTEN  =       -36.32733665 eV

  energy without entropy =      -36.32733665  energy(sigma->0) =      -36.32733665


--------------------------------------------------------------------------------------------------------




--------------------------------------- Iteration      2(   2)  ---------------------------------------


    POTLOK:  cpu time    0.0137: real time    0.0138
    SETDIJ:  cpu time    0.0020: real time    0.0020
     EDDAV:  cpu time    0.0327: real time    0.0327
       DOS:  cpu time    0.0002: real time    0.0002
    CHARGE:  cpu time    0.0040: real time    0.0040
    MIXING:  cpu time    0.0004: real time    0.0004
    --------------------------------------------
      LOOP:  cpu time    0.0529: real time    0.0531

 eigenvalue-minimisations  :   184
 total energy-change (2. order) :-0.2671476E-04  (-0.4895197E-04)
 number of electron      15.9999999 magnetization 
 augmentation part        0.3746859 magnetization 

 Broyden mixing:
  rms(total) = 0.26596E-02    rms(broyden)= 0.26589E-02
  rms(prec ) = 0.47973E-02
  weight for this iteration     100.00

 eigenvalues of (default mixing * dielectric matrix)
  average eigenvalue GAMMA=   2.1124
  2.1124

 Free energy of the ion-electron system (eV)
  ---------------------------------------------------
  alpha Z        PSCENC =        57.41528580
  Ewald energy   TEWEN  =      -692.92269725
  -Hartree energ DENC   =       -53.86588075
  -exchange      EXHF   =         0.00000000
  -V(xc)+E(xc)   XCENC  =        56.29807937
  PAW double counting   =      1510.01393388    -1512.68214952
  entropy T*S    EENTRO =        -0.00000000
  eigenvalues    EBANDS =        10.82237842
  atomic energy  EATOM  =       588.59368669
  Solvation  Ediel_sol  =         0.00000000
  ---------------------------------------------------
  free energy    TOTEN  =       -36.32736336 eV

  energy without entropy =      -36.32736336  energy(sigma->0) =      -36.32736336


--------------------------------------------------------------------------------------------------------




--------------------------------------- Iteration      2(   3)  ---------------------------------------


    POTLOK:  cpu time    0.0117: real time    0.0117
    SETDIJ:  cpu time    0.0017: real time    0.0017
     EDDAV:  cpu time    0.0307: real time    0.0308
       DOS:  cpu time    0.0001: real time    0.0001
    CHARGE:  cpu time    0.0036: real time    0.0036
    MIXING:  cpu time    0.0004: real time    0.0004
    --------------------------------------------
      LOOP:  cpu time    0.0481: real time    0.0483

 eigenvalue-minimisations  :   164
 total energy-change (2. order) : 0.9968067E-05  (-0.2310241E-05)
 number of electron      15.9999999 magnetization 
 augmentation part        0.3747223 magnetization 

 Broyden mixing:
  rms(total) = 0.45355E-03    rms(broyden)= 0.45323E-03
  rms(prec ) = 0.58018E-03
  weight for this iteration     100.00

 eigenvalues of (default mixing * dielectric matrix)
  average eigenvalue GAMMA=   1.5580
  0.9884  2.1275

 Free energy of the ion-electron system (eV)
  ---------------------------------------------------
  alpha Z        PSCENC =        57.41528580
  Ewald energy   TEWEN  =      -692.92269725
  -Hartree energ DENC   =       -53.82068714
  -exchange      EXHF   =         0.00000000
  -V(xc)+E(xc)   XCENC  =        56.29436830
  PAW double counting   =      1512.15390894    -1514.82258251
  entropy T*S    EENTRO =        -0.00000000
  eigenvalues    EBANDS =        10.78136378
  atomic energy  EATOM  =       588.59368669
  Solvation  Ediel_sol  =         0.00000000
  ---------------------------------------------------
  free energy    TOTEN  =       -36.32735339 eV

  energy without entropy =      -36.32735339  energy(sigma->0) =      -36.32735339


--------------------------------------------------------------------------------------------------------




--------------------------------------- Iteration      2(   4)  ---------------------------------------


    POTLOK:  cpu time    0.0115: real time    0.0115
    SETDIJ:  cpu time    0.0017: real time    0.0017
     EDDAV:  cpu time    0.0249: real time    0.0250
       DOS:  cpu time    0.0001: real time    0.0001
    --------------------------------------------
      LOOP:  cpu time    0.0381: real time    0.0383

 eigenvalue-minimisations  :   120
 total energy-change (2. order) :-0.3255650E-07  (-0.4728901E-07)
 number of electron      15.9999999 magnetization 
 augmentation part        0.3747223 magnetization 

 Free energy of the ion-electron system (eV)
  ---------------------------------------------------
  alpha Z        PSCENC =        57.41528580
  Ewald energy   TEWEN  =      -692.92269725
  -Hartree energ DENC   =       -53.82315114
  -exchange      EXHF   =         0.00000000
  -V(xc)+E(xc)   XCENC  =        56.29458114
  PAW double counting   =      1511.95603310    -1514.62490253
  entropy T*S    EENTRO =        -0.00000000
  eigenvalues    EBANDS =        10.78381076
  atomic energy  EATOM  =       588.59368669
  Solvation  Ediel_sol  =         0.00000000
  ---------------------------------------------------
  free energy    TOTEN  =       -36.32735343 eV

  energy without entropy =      -36.32735343  energy(sigma->0) =      -36.32735343


--------------------------------------------------------------------------------------------------------




 average (electrostatic) potential at core
  the test charge radii are     0.6991
  (the norm of the test charge is              1.0000)
       1 -45.5280       2 -45.5280       3 -45.5280       4 -45.5280
 
 
 
 E-fermi :   9.0569     XC(G=0): -13.2038     alpha+bet :-17.5124

 Fermi energy:         9.0568753682

 k-point     1 :       0.1250    0.1250    0.2500
  band No.  band energies     occupation 
      1     -10.2173      2.00000
      2      -7.0201      2.00000
      3      -0.2521      2.00000
      4       3.3393      2.00000
      5       4.7907      2.00000
      6       5.5065      2.00000
      7       7.1023      2.00000
      8       7.2238      2.00000
      9      15.8935      0.00000
     10      16.8156      0.00000
     11      17.3992      0.00000
     12      19.2052      0.00000

 k-point     2 :       0.3750    0.1250    0.2500
  band No.  band energies     occupation 
      1      -6.6474      2.00000
      2      -3.8480      2.00000
      3      -2.9882      2.00000
      4      -0.3359      2.00000
      5       2.1888      2.00000
      6       2.9977      2.00000
      7       4.8034      2.00000
      8       5.5566      2.00000
      9      15.9473      0.00000
     10      16.8282      0.00000
     11      17.9194      0.00000
     12      19.4501      0.00000

 k-point     3 :      -0.3750    0.1250    0.2500
  band No.  band energies     occupation 
      1      -8.7221      2.00000
      2      -5.5987      2.00000
      3      -0.3632      2.00000
      4       1.4630      2.00000
      5       2.6231      2.00000
      6       3.3200      2.00000
      7       5.6997      2.00000
      8       6.5247      2.00000
      9      15.8874      0.00000
     10      17.2544      0.00000
     11      17.9994      0.00000
     12      19.1575      0.00000

 k-point     4 :      -0.1250    0.1250    0.2500
  band No.  band energies     occupation 
      1     -10.9797      2.00000
      2      -7.7494      2.00000
      3      -0.8138      2.00000
      4       5.3895      2.00000
      5       6.4293      2.00000
      6       6.8531      2.00000
      7       7.7754      2.00000
      8       8.5736      2.00000
      9      15.3552      0.00000
     10      16.5381      0.00000
     11      16.7923      0.00000
     12      18.6633      0.00000

 k-point     5 :       0.3750    0.3750    0.2500
  band No.  band energies     occupation 
      1      -5.1414      2.00000
      2      -3.9335      2.00000
      3      -2.0115      2.00000
      4      -0.8326      2.00000
      5      -0.0482      2.00000
      6       2.6273      2.00000
      7       3.7816      2.00000
      8       4.8767      2.00000
      9      15.2230      0.00000
     10      18.5462      0.00000
     11      19.5003      0.00000
     12      20.3545      0.00000

 k-point     6 :      -0.3750    0.3750    0.2500
  band No.  band energies     occupation 
      1      -8.0021      2.00000
      2      -4.9276      2.00000
      3      -1.8758      2.00000
      4       0.8672      2.00000
      5       1.8991      2.00000
      6       4.1755      2.00000
      7       5.9480      2.00000
      8       6.4347      2.00000
      9      14.6504      0.00000
     10      16.6432      0.00000
     11      17.2670      0.00000
     12      19.1996      0.00000


--------------------------------------------------------------------------------------------------------


 soft charge-density along one line, spin component           1
         0         1         2         3         4         5         6         7         8         9
 total charge-density along one line
 
 pseudopotential strength for first ion, spin component:           1
  9.441  12.538  -0.000   0.000   0.000   0.000  -0.000  -0.000
 12.538  16.648  -0.000   0.000   0.000   0.000  -0.000  -0.000
 -0.000  -0.000  -3.669  -0.000  -0.000   7.188   0.000   0.000
  0.000   0.000  -0.000  -3.670   0.000   0.000   7.188  -0.000
  0.000   0.000  -0.000   0.000  -3.669   0.000  -0.000   7.188
  0.000   0.000   7.188   0.000   0.000 -16.175  -0.000  -0.000
 -0.000  -0.000   0.000   7.188  -0.000  -0.000 -16.176   0.000
 -0.000  -0.000   0.000  -0.000   7.188  -0.000   0.000 -16.175
 total augmentation occupancy for first ion, spin component:           1
  7.388  -3.252  -0.000  -0.040   0.000  -0.000  -0.007  -0.000
 -3.252   1.517   0.000   0.021  -0.000  -0.000   0.004   0.000
 -0.000   0.000   1.562  -0.000  -0.000   0.128   0.000  -0.000
 -0.040   0.021  -0.000   1.536   0.000   0.000   0.126   0.000
  0.000  -0.000  -0.000   0.000   1.562  -0.000   0.000   0.128
 -0.000  -0.000   0.128   0.000  -0.000   0.012   0.000  -0.000
 -0.007   0.004   0.000   0.126   0.000   0.000   0.012   0.000
 -0.000   0.000  -0.000   0.000   0.128  -0.000   0.000   0.012


------------------------ aborting loop because EDIFF is reached ----------------------------------------


    CHARGE:  cpu time    0.0037: real time    0.0037
    FORLOC:  cpu time    0.0008: real time    0.0009
    FORNL :  cpu time    0.0057: real time    0.0057
    STRESS:  cpu time    0.0230: real time    0.0230
    FORCOR:  cpu time    0.0125: real time    0.0125
    FORHAR:  cpu time    0.0024: real time    0.0024
    MIXING:  cpu time    0.0004: real time    0.0004
    OFIELD:  cpu time    0.0000: real time    0.0000

  FORCE on cell =-STRESS in cart. coord.  units (eV):
  Direction    XX          YY          ZZ          XY          YZ          ZX
  --------------------------------------------------------------------------------------
  Alpha Z    57.41529    57.41529    57.41529
  Ewald    -231.55830  -231.55830  -229.80591    -0.00000     0.00000     0.00000
  Hartree    17.22381    17.22381    19.37661    -0.00000    -0.00000    -0.00000
  E(xc)     -60.75941   -60.75941   -60.71799    -0.00000    -0.00000    -0.00000
  Local     -21.52327   -21.52328   -25.61044    -0.00001    -0.00000    -0.00000
  n-local   -14.39349   -13.91182   -13.82602    -0.26216    -0.00592    -0.04726
  augment    -1.42299    -1.42297    -1.42435     0.00002     0.00000     0.00000
  Kinetic   253.99909   255.15033   254.60833     0.54725     0.57155    -0.19102
  Fock        0.00000     0.00000     0.00000     0.00000     0.00000     0.00000
  -------------------------------------------------------------------------------------
  Total      -0.20282    -0.20282     0.01553     0.00000     0.00000    -0.00000
  in kB     -14.19495   -14.19495     1.08693     0.00000     0.00000    -0.00000
  external pressure =       -9.10 kB  Pullay stress =        0.00 kB


 VOLUME and BASIS-vectors are now :
 -----------------------------------------------------------------------------
  energy-cutoff  :      500.00
  volume of cell :       22.89
      direct lattice vectors                 reciprocal lattice vectors
     2.514446306  0.000000000 -0.000000000     0.397701871  0.229613282 -0.000000000
    -1.257223153  2.177574377  0.000000000    -0.000000000  0.459226564 -0.000000000
     0.000000000  0.000000000  4.180876068     0.000000000  0.000000000  0.239184320

  length of vectors
     2.514446306  2.514446306  4.180876068     0.459226564  0.459226564  0.239184320


 FORCES acting on ions
    electron-ion (+dipol)            ewald-force                    non-local-force                 convergence-correction
 -----------------------------------------------------------------------------------------------
   0.141E-07 -.571E-07 -.488E+01   -.825E-11 0.472E-11 0.484E+01   -.167E-16 -.315E-17 0.136E+00   0.131E-07 -.755E-08 0.507E-03
   -.141E-07 0.571E-07 0.488E+01   0.825E-11 -.472E-11 -.484E+01   0.179E-16 0.270E-17 -.136E+00   -.131E-07 0.755E-08 -.507E-03
   -.565E-07 -.163E-07 -.488E+01   0.825E-11 -.473E-11 0.484E+01   0.849E-17 -.371E-17 0.136E+00   -.131E-07 0.755E-08 0.507E-03
   0.565E-07 0.163E-07 0.488E+01   -.826E-11 0.473E-11 -.484E+01   -.597E-17 0.202E-17 -.136E+00   0.131E-07 -.755E-08 -.507E-03
 -----------------------------------------------------------------------------------------------
   -.210E-13 0.303E-12 -.128E-11   -.426E-14 0.210E-14 0.178E-14   0.368E-17 -.214E-17 -.278E-16   0.365E-14 0.408E-14 0.955E-15
 
 
 POSITION                                       TOTAL-FORCE (eV/Angst)
 -----------------------------------------------------------------------------------
      0.00000      1.45172      0.26246         0.000000      0.000000      0.089171
      1.25722      0.72586      3.91841        -0.000000     -0.000000     -0.089171
      1.25722      0.72586      2.35290         0.000000      0.000000      0.089171
      0.00000      1.45172      1.82798        -0.000000     -0.000000     -0.089171
 -----------------------------------------------------------------------------------
    total drift:                               -0.000000      0.000000     -0.000000


--------------------------------------------------------------------------------------------------------



  FREE ENERGIE OF THE ION-ELECTRON SYSTEM (eV)
  ---------------------------------------------------
  free  energy   TOTEN  =       -36.32735343 eV

  energy  without entropy=      -36.32735343  energy(sigma->0) =      -36.32735343
  enthalpy is  TOTEN    =       -36.32733914 eV   P V=        0.00001429

 d Force = 0.1666533E-02[ 0.870E-03, 0.246E-02]  d Energy = 0.2123353E-02-0.457E-03
 d Force = 0.4818738E-01[ 0.472E-01, 0.492E-01]  d Ewald  = 0.4005836E+00-0.352E+00


--------------------------------------------------------------------------------------------------------


    POTLOK:  cpu time    0.0128: real time    0.0128


--------------------------------------------------------------------------------------------------------


 Steepest descent step on ions:
 trial-energy change:   -0.002123  1 .order   -0.002119   -0.003033   -0.001206
  (g-gl).g = 0.303E-02      g.g   = 0.303E-02  gl.gl    = 0.000E+00
 g(Force)  = 0.246E-02   g(Stress)= 0.569E-03 ortho     = 0.000E+00
 gamma     =   0.00000
 trial     =   1.00000
 opt step  =   1.65991  (harmonic =   1.65991) maximal distance =0.00404610
 next E    =   -36.327733   (d E  =  -0.00252)


--------------------------------------------------------------------------------------------------------


    WAVPRE:  cpu time    0.0026: real time    0.0026
    FEWALD:  cpu time    0.0000: real time    0.0000
    GENKIN:  cpu time    0.0004: real time    0.0004
    ORTHCH:  cpu time    0.0007: real time    0.0007
     LOOP+:  cpu time    0.2516: real time    0.2524


--------------------------------------- Iteration      3(   1)  ---------------------------------------


    POTLOK:  cpu time    0.0113: real time    0.0113
    SETDIJ:  cpu time    0.0017: real time    0.0017
     EDDAV:  cpu time    0.0261: real time    0.0261
       DOS:  cpu time    0.0001: real time    0.0001
    CHARGE:  cpu time    0.0035: real time    0.0035
    MIXING:  cpu time    0.0006: real time    0.0006
    --------------------------------------------
      LOOP:  cpu time    0.0433: real time    0.0433

 eigenvalue-minimisations  :   148
 total energy-change (2. order) :-0.3868612E-03  (-0.2275662E-02)
 number of electron      15.9999999 magnetization 
 augmentation part        0.3749851 magnetization 

 Broyden mixing:
  rms(total) = 0.27581E-02    rms(broyden)= 0.27529E-02
  rms(prec ) = 0.50238E-02
  weight for this iteration     100.00

 Free energy of the ion-electron system (eV)
  ---------------------------------------------------
  alpha Z        PSCENC =        57.47312439
  Ewald energy   TEWEN  =      -693.18701980
  -Hartree energ DENC   =       -53.82317267
  -exchange      EXHF   =         0.00000000
  -V(xc)+E(xc)   XCENC  =        56.31177038
  PAW double counting   =      1511.74902868    -1514.41822098
  entropy T*S    EENTRO =        -0.00000000
  eigenvalues    EBANDS =        10.97306306
  atomic energy  EATOM  =       588.59368669
  Solvation  Ediel_sol  =         0.00000000
  ---------------------------------------------------
  free energy    TOTEN  =       -36.32774026 eV

  energy without entropy =      -36.32774026  energy(sigma->0) =      -36.32774026


--------------------------------------------------------------------------------------------------------




--------------------------------------- Iteration      3(   2)  ---------------------------------------


    POTLOK:  cpu time    0.0116: real time    0.0116
    SETDIJ:  cpu time    0.0017: real time    0.0017
     EDDAV:  cpu time    0.0306: real time    0.0306
       DOS:  cpu time    0.0001: real time    0.0001
    CHARGE:  cpu time    0.0035: real time    0.0035
    MIXING:  cpu time    0.0004: real time    0.0004
    --------------------------------------------
      LOOP:  cpu time    0.0478: real time    0.0478

 eigenvalue-minimisations  :   184
 total energy-change (2. order) :-0.1225141E-04  (-0.2178603E-04)
 number of electron      15.9999999 magnetization 
 augmentation part        0.3750301 magnetization 

 Broyden mixing:
  rms(total) = 0.17549E-02    rms(broyden)= 0.17544E-02
  rms(prec ) = 0.31671E-02
  weight for this iteration     100.00

 eigenvalues of (default mixing * dielectric matrix)
  average eigenvalue GAMMA=   2.1080
  2.1080

 Free energy of the ion-electron system (eV)
  ---------------------------------------------------
  alpha Z        PSCENC =        57.47312439
  Ewald energy   TEWEN  =      -693.18701980
  -Hartree energ DENC   =       -53.79930997
  -exchange      EXHF   =         0.00000000
  -V(xc)+E(xc)   XCENC  =        56.30977108
  PAW double counting   =      1512.67474863    -1515.34414793
  entropy T*S    EENTRO =        -0.00000000
  eigenvalues    EBANDS =        10.95139440
  atomic energy  EATOM  =       588.59368669
  Solvation  Ediel_sol  =         0.00000000
  ---------------------------------------------------
  free energy    TOTEN  =       -36.32775251 eV

  energy without entropy =      -36.32775251  energy(sigma->0) =      -36.32775251


--------------------------------------------------------------------------------------------------------




--------------------------------------- Iteration      3(   3)  ---------------------------------------


    POTLOK:  cpu time    0.0117: real time    0.0117
    SETDIJ:  cpu time    0.0017: real time    0.0017
     EDDAV:  cpu time    0.0298: real time    0.0298
       DOS:  cpu time    0.0001: real time    0.0001
    CHARGE:  cpu time    0.0036: real time    0.0036
    MIXING:  cpu time    0.0004: real time    0.0004
    --------------------------------------------
      LOOP:  cpu time    0.0473: real time    0.0473

 eigenvalue-minimisations  :   164
 total energy-change (2. order) : 0.4239952E-05  (-0.1017380E-05)
 number of electron      15.9999999 magnetization 
 augmentation part        0.3750542 magnetization 

 Broyden mixing:
  rms(total) = 0.30037E-03    rms(broyden)= 0.30015E-03
  rms(prec ) = 0.38452E-03
  weight for this iteration     100.00

 eigenvalues of (default mixing * dielectric matrix)
  average eigenvalue GAMMA=   1.5574
  0.9878  2.1270

 Free energy of the ion-electron system (eV)
  ---------------------------------------------------
  alpha Z        PSCENC =        57.47312439
  Ewald energy   TEWEN  =      -693.18701980
  -Hartree energ DENC   =       -53.76930313
  -exchange      EXHF   =         0.00000000
  -V(xc)+E(xc)   XCENC  =        56.30730538
  PAW double counting   =      1514.07844646    -1516.74814260
  entropy T*S    EENTRO =        -0.00000000
  eigenvalues    EBANDS =        10.92415435
  atomic energy  EATOM  =       588.59368669
  Solvation  Ediel_sol  =         0.00000000
  ---------------------------------------------------
  free energy    TOTEN  =       -36.32774827 eV

  energy without entropy =      -36.32774827  energy(sigma->0) =      -36.32774827


--------------------------------------------------------------------------------------------------------




--------------------------------------- Iteration      3(   4)  ---------------------------------------


    POTLOK:  cpu time    0.0149: real time    0.0149
    SETDIJ:  cpu time    0.0017: real time    0.0017
     EDDAV:  cpu time    0.0239: real time    0.0239
       DOS:  cpu time    0.0001: real time    0.0001
    --------------------------------------------
      LOOP:  cpu time    0.0406: real time    0.0406

 eigenvalue-minimisations  :   108
 total energy-change (2. order) :-0.2578690E-07  (-0.2120947E-07)
 number of electron      15.9999999 magnetization 
 augmentation part        0.3750542 magnetization 

 Free energy of the ion-electron system (eV)
  ---------------------------------------------------
  alpha Z        PSCENC =        57.47312439
  Ewald energy   TEWEN  =      -693.18701980
  -Hartree energ DENC   =       -53.77095626
  -exchange      EXHF   =         0.00000000
  -V(xc)+E(xc)   XCENC  =        56.30744802
  PAW double counting   =      1513.94659479    -1516.61642023
  entropy T*S    EENTRO =        -0.00000000
  eigenvalues    EBANDS =        10.92579411
  atomic energy  EATOM  =       588.59368669
  Solvation  Ediel_sol  =         0.00000000
  ---------------------------------------------------
  free energy    TOTEN  =       -36.32774829 eV

  energy without entropy =      -36.32774829  energy(sigma->0) =      -36.32774829


--------------------------------------------------------------------------------------------------------




 average (electrostatic) potential at core
  the test charge radii are     0.6991
  (the norm of the test charge is              1.0000)
       1 -45.5135       2 -45.5135       3 -45.5135       4 -45.5135
 
 
 
 E-fermi :   9.0815     XC(G=0): -13.2092     alpha+bet :-17.5300

 Fermi energy:         9.0814937014

 k-point     1 :       0.1250    0.1250    0.2500
  band No.  band energies     occupation 
      1     -10.2144      2.00000
      2      -7.0167      2.00000
      3      -0.2648      2.00000
      4       3.3626      2.00000
      5       4.8098      2.00000
      6       5.5275      2.00000
      7       7.0900      2.00000
      8       7.2564      2.00000
      9      15.9115      0.00000
     10      16.8239      0.00000
     11      17.4450      0.00000
     12      19.2267      0.00000

 k-point     2 :       0.3750    0.1250    0.2500
  band No.  band energies     occupation 
      1      -6.6398      2.00000
      2      -3.8423      2.00000
      3      -2.9744      2.00000
      4      -0.3215      2.00000
      5       2.1957      2.00000
      6       3.0021      2.00000
      7       4.8204      2.00000
      8       5.5531      2.00000
      9      15.9456      0.00000
     10      16.8547      0.00000
     11      17.9576      0.00000
     12      19.4510      0.00000

 k-point     3 :      -0.3750    0.1250    0.2500
  band No.  band energies     occupation 
      1      -8.7172      2.00000
      2      -5.5934      2.00000
      3      -0.3566      2.00000
      4       1.4633      2.00000
      5       2.6400      2.00000
      6       3.3418      2.00000
      7       5.7267      2.00000
      8       6.5111      2.00000
      9      15.9003      0.00000
     10      17.2913      0.00000
     11      18.0096      0.00000
     12      19.1714      0.00000

 k-point     4 :      -0.1250    0.1250    0.2500
  band No.  band energies     occupation 
      1     -10.9777      2.00000
      2      -7.7470      2.00000
      3      -0.8266      2.00000
      4       5.4144      2.00000
      5       6.4558      2.00000
      6       6.8333      2.00000
      7       7.8029      2.00000
      8       8.6094      2.00000
      9      15.3698      0.00000
     10      16.5450      0.00000
     11      16.8388      0.00000
     12      18.6964      0.00000

 k-point     5 :       0.3750    0.3750    0.2500
  band No.  band energies     occupation 
      1      -5.1321      2.00000
      2      -3.9249      2.00000
      3      -1.9985      2.00000
      4      -0.8182      2.00000
      5      -0.0339      2.00000
      6       2.6484      2.00000
      7       3.7730      2.00000
      8       4.8660      2.00000
      9      15.1999      0.00000
     10      18.5884      0.00000
     11      19.5452      0.00000
     12      20.3862      0.00000

 k-point     6 :      -0.3750    0.3750    0.2500
  band No.  band energies     occupation 
      1      -7.9963      2.00000
      2      -4.9216      2.00000
      3      -1.8637      2.00000
      4       0.8801      2.00000
      5       1.8942      2.00000
      6       4.1995      2.00000
      7       5.9307      2.00000
      8       6.4678      2.00000
      9      14.6714      0.00000
     10      16.6883      0.00000
     11      17.2758      0.00000
     12      19.1793      0.00000


--------------------------------------------------------------------------------------------------------


 soft charge-density along one line, spin component           1
         0         1         2         3         4         5         6         7         8         9
 total charge-density along one line
 
 pseudopotential strength for first ion, spin component:           1
  9.441  12.537  -0.000   0.000   0.000   0.000  -0.000  -0.000
 12.537  16.647  -0.000   0.000   0.000   0.000  -0.000  -0.000
 -0.000  -0.000  -3.669  -0.000  -0.000   7.186   0.000   0.000
  0.000   0.000  -0.000  -3.669   0.000   0.000   7.187  -0.000
  0.000   0.000  -0.000   0.000  -3.669   0.000  -0.000   7.186
  0.000   0.000   7.186   0.000   0.000 -16.171  -0.000  -0.000
 -0.000  -0.000   0.000   7.187  -0.000  -0.000 -16.173   0.000
 -0.000  -0.000   0.000  -0.000   7.186  -0.000   0.000 -16.171
 total augmentation occupancy for first ion, spin component:           1
  7.396  -3.257  -0.000  -0.036  -0.000  -0.000  -0.006  -0.000
[...]
  0.000   0.000  -0.000   0.000   0.128  -0.000   0.000   0.012


------------------------ aborting loop because EDIFF is reached ----------------------------------------


    CHARGE:  cpu time    0.0035: real time    0.0035
    FORLOC:  cpu time    0.0008: real time    0.0008
    FORNL :  cpu time    0.0057: real time    0.0057
    STRESS:  cpu time    0.0184: real time    0.0184
    FORCOR:  cpu time    0.0120: real time    0.0120
    FORHAR:  cpu time    0.0025: real time    0.0025
    MIXING:  cpu time    0.0004: real time    0.0004
    OFIELD:  cpu time    0.0000: real time    0.0000

  FORCE on cell =-STRESS in cart. coord.  units (eV):
  Direction    XX          YY          ZZ          XY          YZ          ZX
  --------------------------------------------------------------------------------------
  Alpha Z    57.54613    57.54613    57.54613
  Ewald    -232.05920  -232.05920  -229.35803    -0.00000    -0.00000    -0.00000
  Hartree    17.17628    17.17628    19.38426    -0.00000    -0.00000    -0.00000
  E(xc)     -60.79079   -60.79079   -60.74574    -0.00000    -0.00000    -0.00000
  Local     -21.15802   -21.15804   -26.06209    -0.00001    -0.00000    -0.00000
  n-local   -14.46162   -13.96734   -13.84164    -0.26604    -0.00928    -0.04381
  augment    -1.42685    -1.42684    -1.42940     0.00002     0.00000    -0.00000
  Kinetic   254.38041   255.47539   254.51151     0.56626     0.59361    -0.21342
  Fock        0.00000     0.00000     0.00000     0.00000     0.00000     0.00000
  -------------------------------------------------------------------------------------
  Total       0.00096     0.00096     0.00501    -0.00000     0.00000     0.00000
  in kB       0.06733     0.06733     0.35124    -0.00000     0.00000     0.00000
  external pressure =        0.16 kB  Pullay stress =        0.00 kB


 VOLUME and BASIS-vectors are now :
 -----------------------------------------------------------------------------
  energy-cutoff  :      500.00
  volume of cell :       22.84
      direct lattice vectors                 reciprocal lattice vectors
     2.511527646  0.000000000  0.000000000     0.398164042  0.229880117  0.000000000
    -1.255763823  2.175046744 -0.000000000    -0.000000000  0.459760234  0.000000000
    -0.000000000 -0.000000000  4.181071024    -0.000000000 -0.000000000  0.239173167

  length of vectors
     2.511527646  2.511527646  4.181071024     0.459760234  0.459760234  0.239173167


 FORCES acting on ions
    electron-ion (+dipol)            ewald-force                    non-local-force                 convergence-correction
 -----------------------------------------------------------------------------------------------
   0.153E-07 -.557E-07 -.496E+01   -.824E-11 0.477E-11 0.486E+01   0.127E-16 -.934E-17 0.996E-01   0.871E-10 -.503E-10 0.856E-05
   -.153E-07 0.557E-07 0.496E+01   0.824E-11 -.477E-11 -.486E+01   -.191E-16 0.237E-17 -.996E-01   -.871E-10 0.503E-10 -.856E-05
   -.559E-07 -.146E-07 -.496E+01   0.824E-11 -.477E-11 0.486E+01   0.150E-17 0.923E-17 0.996E-01   -.871E-10 0.503E-10 0.856E-05
   0.559E-07 0.146E-07 0.496E+01   -.824E-11 0.477E-11 -.486E+01   0.525E-17 -.949E-17 -.996E-01   0.871E-10 -.503E-10 -.856E-05
 -----------------------------------------------------------------------------------------------
   -.235E-12 0.695E-13 -.189E-11   0.497E-15 -.807E-15 0.178E-14   0.381E-18 -.723E-17 0.000E+00   0.207E-13 0.116E-13 0.616E-13
 
 
 POSITION                                       TOTAL-FORCE (eV/Angst)
 -----------------------------------------------------------------------------------
      0.00000      1.45003      0.26382         0.000000      0.000000     -0.001267
      1.25576      0.72502      3.91725        -0.000000     -0.000000      0.001267
      1.25576      0.72502      2.35436         0.000000      0.000000     -0.001267
      0.00000      1.45003      1.82671        -0.000000     -0.000000      0.001267
 -----------------------------------------------------------------------------------
    total drift:                               -0.000000      0.000000     -0.000000


--------------------------------------------------------------------------------------------------------



  FREE ENERGIE OF THE ION-ELECTRON SYSTEM (eV)
  ---------------------------------------------------
  free  energy   TOTEN  =       -36.32782860 eV

  energy  without entropy=      -36.32782860  energy(sigma->0) =      -36.32782860
  enthalpy is  TOTEN    =       -36.32781434 eV   P V=        0.00001426

 d Force = 0.7674352E-09[ 0.764E-09, 0.771E-09]  d Energy = 0.6573302E-09 0.110E-09
 d Force =-0.2928945E-05[-0.293E-05,-0.293E-05]  d Ewald  = 0.1690797E-03-0.172E-03


--------------------------------------------------------------------------------------------------------


    POTLOK:  cpu time    0.0131: real time    0.0131


--------------------------------------------------------------------------------------------------------




--------------------------------------------------------------------------------------------------------


    WAVPRE:  cpu time    0.0027: real time    0.0027
    FEWALD:  cpu time    0.0000: real time    0.0000
    GENKIN:  cpu time    0.0004: real time    0.0004
    ORTHCH:  cpu time    0.0007: real time    0.0007
     LOOP+:  cpu time    0.1280: real time    0.1280


--------------------------------------- Iteration     12(   1)  ---------------------------------------


    POTLOK:  cpu time    0.0116: real time    0.0116
    SETDIJ:  cpu time    0.0017: real time    0.0017
     EDDAV:  cpu time    0.0280: real time    0.0280
       DOS:  cpu time    0.0001: real time    0.0001
    CHARGE:  cpu time    0.0035: real time    0.0035
    MIXING:  cpu time    0.0004: real time    0.0004
    --------------------------------------------
      LOOP:  cpu time    0.0453: real time    0.0453

 eigenvalue-minimisations  :   148
 total energy-change (2. order) :-0.1203838E-06  (-0.3551342E-06)
 number of electron      15.9999999 magnetization 
 augmentation part        0.3754958 magnetization 

 Broyden mixing:
  rms(total) = 0.80120E-04    rms(broyden)= 0.80069E-04
  rms(prec ) = 0.14910E-03
  weight for this iteration     100.00

 Free energy of the ion-electron system (eV)
  ---------------------------------------------------
  alpha Z        PSCENC =        57.54470229
  Ewald energy   TEWEN  =      -693.47062813
  -Hartree energ DENC   =       -53.73654667
  -exchange      EXHF   =         0.00000000
  -V(xc)+E(xc)   XCENC  =        56.32495836
  PAW double counting   =      1516.83547168    -1519.50673808
  entropy T*S    EENTRO =        -0.00000000
  eigenvalues    EBANDS =        11.08726514
  atomic energy  EATOM  =       588.59368669
  Solvation  Ediel_sol  =         0.00000000
  ---------------------------------------------------
  free energy    TOTEN  =       -36.32782872 eV

  energy without entropy =      -36.32782872  energy(sigma->0) =      -36.32782872


--------------------------------------------------------------------------------------------------------




--------------------------------------- Iteration     12(   2)  ---------------------------------------


    POTLOK:  cpu time    0.0115: real time    0.0115
    SETDIJ:  cpu time    0.0017: real time    0.0017
     EDDAV:  cpu time    0.0173: real time    0.0174
       DOS:  cpu time    0.0001: real time    0.0001
    --------------------------------------------
      LOOP:  cpu time    0.0305: real time    0.0306

 eigenvalue-minimisations  :    72
 total energy-change (2. order) : 0.1469368E-07  (-0.6222348E-08)
 number of electron      15.9999999 magnetization 
 augmentation part        0.3754958 magnetization 

 Free energy of the ion-electron system (eV)
  ---------------------------------------------------
  alpha Z        PSCENC =        57.54470229
  Ewald energy   TEWEN  =      -693.47062813
  -Hartree energ DENC   =       -53.73706922
  -exchange      EXHF   =         0.00000000
  -V(xc)+E(xc)   XCENC  =        56.32500230
  PAW double counting   =      1516.80702266    -1519.47828235
  entropy T*S    EENTRO =        -0.00000000
  eigenvalues    EBANDS =        11.08773705
  atomic energy  EATOM  =       588.59368669
  Solvation  Ediel_sol  =         0.00000000
  ---------------------------------------------------
  free energy    TOTEN  =       -36.32782870 eV

  energy without entropy =      -36.32782870  energy(sigma->0) =      -36.32782870


--------------------------------------------------------------------------------------------------------




 average (electrostatic) potential at core
  the test charge radii are     0.6991
  (the norm of the test charge is              1.0000)
       1 -45.4956       2 -45.4956       3 -45.4956       4 -45.4956
 
 
 
 E-fermi :   9.1027     XC(G=0): -13.2155     alpha+bet :-17.5519

 Fermi energy:         9.1026816905

 k-point     1 :       0.1250    0.1250    0.2500
  band No.  band energies     occupation 
      1     -10.2118      2.00000
      2      -7.0147      2.00000
      3      -0.2550      2.00000
      4       3.3765      2.00000
      5       4.8250      2.00000
      6       5.5432      2.00000
      7       7.1040      2.00000
      8       7.2676      2.00000
      9      15.9347      0.00000
     10      16.8572      0.00000
     11      17.4613      0.00000
     12      19.2575      0.00000

 k-point     2 :       0.3750    0.1250    0.2500
  band No.  band energies     occupation 
      1      -6.6314      2.00000
      2      -3.8313      2.00000
      3      -2.9689      2.00000
      4      -0.3146      2.00000
      5       2.2081      2.00000
      6       3.0123      2.00000
      7       4.8307      2.00000
      8       5.5666      2.00000
      9      15.9678      0.00000
     10      16.8825      0.00000
     11      17.9706      0.00000
     12      19.4892      0.00000

 k-point     3 :      -0.3750    0.1250    0.2500
  band No.  band energies     occupation 
      1      -8.7126      2.00000
      2      -5.5893      2.00000
      3      -0.3406      2.00000
      4       1.4702      2.00000
      5       2.6521      2.00000
      6       3.3531      2.00000
      7       5.7361      2.00000
      8       6.5273      2.00000
      9      15.9242      0.00000
     10      17.3070      0.00000
     11      18.0367      0.00000
     12      19.2083      0.00000

 k-point     4 :      -0.1250    0.1250    0.2500
  band No.  band energies     occupation 
      1     -10.9761      2.00000
      2      -7.7460      2.00000
      3      -0.8192      2.00000
      4       5.4313      2.00000
      5       6.4729      2.00000
      6       6.8524      2.00000
      7       7.8143      2.00000
      8       8.6231      2.00000
      9      15.3976      0.00000
     10      16.5765      0.00000
     11      16.8525      0.00000
     12      18.7299      0.00000

 k-point     5 :       0.3750    0.3750    0.2500
  band No.  band energies     occupation 
      1      -5.1203      2.00000
      2      -3.9126      2.00000
      3      -1.9909      2.00000
      4      -0.8107      2.00000
      5      -0.0278      2.00000
      6       2.6520      2.00000
      7       3.7862      2.00000
      8       4.8808      2.00000
      9      15.2195      0.00000
     10      18.5991      0.00000
     11      19.5559      0.00000
     12      20.4241      0.00000

 k-point     6 :      -0.3750    0.3750    0.2500
  band No.  band energies     occupation 
      1      -7.9904      2.00000
      2      -4.9161      2.00000
      3      -1.8527      2.00000
      4       0.8888      2.00000
      5       1.9037      2.00000
      6       4.2126      2.00000
      7       5.9477      2.00000
      8       6.4775      2.00000
      9      14.6991      0.00000
     10      16.6958      0.00000
     11      17.3066      0.00000
     12      19.2162      0.00000


--------------------------------------------------------------------------------------------------------


 soft charge-density along one line, spin component           1
         0         1         2         3         4         5         6         7         8         9
 total charge-density along one line
 
 pseudopotential strength for first ion, spin component:           1
  9.440  12.536  -0.000   0.000   0.000   0.000  -0.000  -0.000
 12.536  16.645  -0.000   0.000   0.000   0.000  -0.000  -0.000
 -0.000  -0.000  -3.668  -0.000  -0.000   7.184   0.000   0.000
  0.000   0.000  -0.000  -3.668   0.000   0.000   7.185  -0.000
  0.000   0.000  -0.000   0.000  -3.668   0.000  -0.000   7.184
  0.000   0.000   7.184   0.000   0.000 -16.167  -0.000  -0.000
 -0.000  -0.000   0.000   7.185  -0.000  -0.000 -16.169   0.000
 -0.000  -0.000   0.000  -0.000   7.184  -0.000   0.000 -16.167
 total augmentation occupancy for first ion, spin component:           1
  7.408  -3.263  -0.000  -0.039  -0.000   0.000  -0.007   0.000
 -3.263   1.523   0.000   0.021  -0.000  -0.000   0.004   0.000
 -0.000   0.000   1.563   0.000  -0.000   0.128  -0.000  -0.000
 -0.039   0.021  -0.000   1.540   0.000   0.000   0.127   0.000
 -0.000  -0.000  -0.000   0.000   1.563  -0.000  -0.000   0.128
  0.000  -0.000   0.128   0.000  -0.000   0.012   0.000  -0.000
 -0.007   0.004  -0.000   0.127   0.000   0.000   0.012   0.000
  0.000   0.000  -0.000   0.000   0.128  -0.000   0.000   0.012


------------------------ aborting loop because EDIFF is reached ----------------------------------------


    CHARGE:  cpu time    0.0035: real time    0.0035
    FORLOC:  cpu time    0.0009: real time    0.0009
    FORNL :  cpu time    0.0059: real time    0.0059
    STRESS:  cpu time    0.0186: real time    0.0186
    FORCOR:  cpu time    0.0121: real time    0.0121
    FORHAR:  cpu time    0.0025: real time    0.0025
    MIXING:  cpu time    0.0004: real time    0.0004
    OFIELD:  cpu time    0.0000: real time    0.0000

  FORCE on cell =-STRESS in cart. coord.  units (eV):
  Direction    XX          YY          ZZ          XY          YZ          ZX
  --------------------------------------------------------------------------------------
  Alpha Z    57.54470    57.54470    57.54470
  Ewald    -232.04850  -232.04850  -229.37344    -0.00000     0.00000     0.00000
  Hartree    17.17837    17.17837    19.38114    -0.00000    -0.00000    -0.00000
  E(xc)     -60.79037   -60.79037   -60.74535    -0.00000    -0.00000    -0.00000
  Local     -21.16845   -21.16847   -26.04406    -0.00001    -0.00000    -0.00000
  n-local   -14.46115   -13.96692   -13.84121    -0.26602    -0.00925    -0.04384
  augment    -1.42681    -1.42679    -1.42932     0.00002     0.00000    -0.00000
  Kinetic   254.37770   255.47269   254.51090     0.56622     0.59324    -0.21303
  Fock        0.00000     0.00000     0.00000     0.00000     0.00000     0.00000
  -------------------------------------------------------------------------------------
  Total       0.00010     0.00010     0.00337    -0.00000     0.00000     0.00000
  in kB       0.00677     0.00677     0.23605    -0.00000     0.00000     0.00000
  external pressure =        0.08 kB  Pullay stress =        0.00 kB


 VOLUME and BASIS-vectors are now :
 -----------------------------------------------------------------------------
  energy-cutoff  :      500.00
  volume of cell :       22.84
      direct lattice vectors                 reciprocal lattice vectors
     2.511538510  0.000000000  0.000000000     0.398162320  0.229879123  0.000000000
    -1.255769255  2.175056152 -0.000000000    -0.000000000  0.459758245  0.000000000
    -0.000000000 -0.000000000  4.181138235    -0.000000000  0.000000000  0.239169323

  length of vectors
     2.511538510  2.511538510  4.181138235     0.459758245  0.459758245  0.239169323


 FORCES acting on ions
    electron-ion (+dipol)            ewald-force                    non-local-force                 convergence-correction
 -----------------------------------------------------------------------------------------------
   0.152E-07 -.558E-07 -.496E+01   -.828E-11 0.476E-11 0.486E+01   -.957E-17 -.464E-17 0.100E+00   -.208E-08 0.120E-08 0.392E-03
   -.152E-07 0.558E-07 0.496E+01   0.828E-11 -.476E-11 -.486E+01   -.330E-17 0.446E-17 -.100E+00   0.208E-08 -.120E-08 -.392E-03
   -.559E-07 -.147E-07 -.496E+01   0.828E-11 -.476E-11 0.486E+01   0.258E-17 -.720E-18 0.100E+00   0.208E-08 -.120E-08 0.392E-03
   0.559E-07 0.147E-07 0.496E+01   -.827E-11 0.476E-11 -.486E+01   0.126E-16 0.163E-18 -.100E+00   -.208E-08 0.120E-08 -.392E-03
 -----------------------------------------------------------------------------------------------
   -.114E-12 0.231E-12 -.162E-11   0.174E-15 0.175E-14 -.622E-14   0.235E-17 -.741E-18 -.139E-16   -.108E-13 -.107E-13 -.230E-13
 
 
 POSITION                                       TOTAL-FORCE (eV/Angst)
 -----------------------------------------------------------------------------------
      0.00000      1.45004      0.26381         0.000000      0.000000     -0.000256
      1.25577      0.72502      3.91732        -0.000000     -0.000000      0.000256
      1.25577      0.72502      2.35438         0.000000     -0.000000     -0.000256
      0.00000      1.45004      1.82676        -0.000000     -0.000000      0.000256
 -----------------------------------------------------------------------------------
    total drift:                               -0.000000      0.000000     -0.000000


--------------------------------------------------------------------------------------------------------



  FREE ENERGIE OF THE ION-ELECTRON SYSTEM (eV)
  ---------------------------------------------------
  free  energy   TOTEN  =       -36.32782870 eV

  energy  without entropy=      -36.32782870  energy(sigma->0) =      -36.32782870
  enthalpy is  TOTEN    =       -36.32781445 eV   P V=        0.00001426

 d Force = 0.4781478E-07[ 0.160E-07, 0.796E-07]  d Energy = 0.1049211E-06-0.571E-07
 d Force =-0.3051432E-03[-0.305E-03,-0.305E-03]  d Ewald  =-0.5999655E-02 0.569E-02


--------------------------------------------------------------------------------------------------------


    POTLOK:  cpu time    0.0130: real time    0.0130


--------------------------------------------------------------------------------------------------------


 Conjugate gradient step on ions:
 trial-energy change:   -0.000000  1 .order   -0.000000   -0.000000   -0.000000
  (g-gl).g =-0.251E-06      g.g   = 0.126E-06  gl.gl    = 0.750E-04
 g(Force)  = 0.620E-07   g(Stress)= 0.644E-07 ortho     =-0.160E-07
 gamma     =  -0.00334
 trial     =   1.32858
 opt step  =   2.29201  (harmonic =   2.29201) maximal distance =0.00002709
 next E    =   -36.327814   (d E  =  -0.00000)


--------------------------------------------------------------------------------------------------------


  
 reached required accuracy - stopping structural energy minimisation
     LOOP+:  cpu time    0.1356: real time    0.1356
    4ORBIT:  cpu time    0.0000: real time    0.0001

 total amount of memory used by VASP MPI-rank0    37938. kBytes
=======================================================================

   base      :      30000. kBytes
   nonl-proj :        265. kBytes
   fftplans  :       2732. kBytes
   grid      :       4209. kBytes
   one-center:         12. kBytes
   wavefun   :        720. kBytes
 
  
  
 General timing and accounting informations for this job:
 ========================================================
  
                  Total CPU time used (sec):        2.704
                            User time (sec):        2.460
                          System time (sec):        0.244
                         Elapsed time (sec):        3.097
  
                   Maximum memory used (kb):       94672.
                   Average memory used (kb):          N/A
  
                          Minor page faults:        63517
                          Major page faults:          588
                 Voluntary context switches:         1040
