unknown system                          
           1
     2.516520    0.000000    0.000000
    -1.258260    2.179370    0.000000
     0.000000    0.000000    4.180357
   C 
     4
Direct configuration=     1
   0.33333333  0.66666667  0.06219378
   0.66666667  0.33333333  0.93780622
   0.66666667  0.33333333  0.56219378
   0.33333333  0.66666667  0.43780622
unknown system                          
           1
     2.514446    0.000000   -0.000000
    -1.257223    2.177574    0.000000
     0.000000    0.000000    4.180876
   C 
     4
Direct configuration=     2
   0.33333333  0.66666667  0.06277687
   0.66666667  0.33333333  0.93722313
   0.66666667  0.33333333  0.56277687
   0.33333333  0.66666667  0.43722313
unknown system                          
           1
     2.513078    0.000000   -0.000000
    -1.256539    2.176389    0.000000
     0.000000    0.000000    4.181219
   C 
     4
Direct configuration=     3
   0.33333333  0.66666667  0.06316161
   0.66666667  0.33333333  0.93683839
   0.66666667  0.33333333  0.56316161
   0.33333333  0.66666667  0.43683839
unknown system                          
           1
     2.512248    0.000000    0.000000
    -1.256124    2.175671   -0.000000
    -0.000000    0.000000    4.181140
   C 
     4
Direct configuration=     4
   0.33333333  0.66666667  0.06312856
   0.66666667  0.33333333  0.93687144
   0.66666667  0.33333333  0.56312856
   0.33333333  0.66666667  0.43687144
unknown system                          
           1
     2.511536    0.000000    0.000000
    -1.255768    2.175054   -0.000000
    -0.000000   -0.000000    4.181072
   C 
     4
Direct configuration=     5
   0.33333333  0.66666667  0.06310019
   0.66666667  0.33333333  0.93689981
   0.66666667  0.33333333  0.56310019
   0.33333333  0.66666667  0.43689981
unknown system                          
           1
     2.511533    0.000000    0.000000
    -1.255766    2.175051   -0.000000
    -0.000000   -0.000000    4.181071
   C 
     4
Direct configuration=     6
   0.33333333  0.66666667  0.06310005
   0.66666667  0.33333333  0.93689995
   0.66666667  0.33333333  0.56310005
   0.33333333  0.66666667  0.43689995
unknown system                          
           1
     2.511525    0.000000    0.000000
    -1.255763    2.175045   -0.000000
    -0.000000   -0.000000    4.181071
   C 
     4
Direct configuration=     7
   0.33333333  0.66666667  0.06309976
   0.66666667  0.33333333  0.93690024
   0.66666667  0.33333333  0.56309976
   0.33333333  0.66666667  0.43690024
unknown system                          
           1
     2.511527    0.000000    0.000000
    -1.255764    2.175046   -0.000000
    -0.000000   -0.000000    4.181071
   C 
     4
Direct configuration=     8
   0.33333333  0.66666667  0.06309983
   0.66666667  0.33333333  0.93690017
   0.66666667  0.33333333  0.56309983
   0.33333333  0.66666667  0.43690017
unknown system                          
           1
     2.511530    0.000000    0.000000
    -1.255765    2.175049   -0.000000
    -0.000000   -0.000000    4.181071
   C 
     4
Direct configuration=     9
   0.33333333  0.66666667  0.06309994
   0.66666667  0.33333333  0.93690006
   0.66666667  0.33333333  0.56309994
   0.33333333  0.66666667  0.43690006
unknown system                          
           1
     2.511529    0.000000    0.000000
    -1.255764    2.175048   -0.000000
    -0.000000   -0.000000    4.181071
   C 
     4
Direct configuration=    10
   0.33333333  0.66666667  0.06309989
   0.66666667  0.33333333  0.93690011
   0.66666667  0.33333333  0.56309989
   0.33333333  0.66666667  0.43690011
unknown system                          
           1
     2.511528    0.000000    0.000000
    -1.255764    2.175047   -0.000000
    -0.000000   -0.000000    4.181071
   C 
     4
Direct configuration=    11
   0.33333333  0.66666667  0.06309985
   0.66666667  0.33333333  0.93690015
   0.66666667  0.33333333  0.56309985
   0.33333333  0.66666667  0.43690015
unknown system                          
           1
     2.511539    0.000000    0.000000
    -1.255769    2.175056   -0.000000
    -0.000000   -0.000000    4.181138
   C 
     4
Direct configuration=    12
   0.33333333  0.66666667  0.06309610
   0.66666667  0.33333333  0.93690390
   0.66666667  0.33333333  0.56309610
   0.33333333  0.66666667  0.43690390
